
     Program PWSCF v.7.3.1 starts on 19Nov2025 at 11:48:29 

     This program is part of the open-source Quantum ESPRESSO suite
     for quantum simulation of materials; please cite
         "P. Giannozzi et al., J. Phys.:Condens. Matter 21 395502 (2009);
         "P. Giannozzi et al., J. Phys.:Condens. Matter 29 465901 (2017);
         "P. Giannozzi et al., J. Chem. Phys. 152 154105 (2020);
          URL http://www.quantum-espresso.org", 
     in publications or presentations arising from this work. More details at
     http://www.quantum-espresso.org/quote

     Parallel version (MPI & OpenMP), running on      40 processor cores
     Number of MPI processes:                40
     Threads/MPI process:                     1

     MPI processes distributed on     1 nodes
     233788 MiB available memory on the printing compute node when the environment starts

     Reading input from topw.al3.scf.in

     Current dimensions of program PWSCF are:
     Max number of different atomic species (ntypx) = 10
     Max number of k-points (npk) =  40000
     Max angular momentum in pseudopotentials (lmaxx) =  4
     file Al.pbe-n-kjpaw_psl.1.0.0.UPF: wavefunction(s)  3S 3P renormalized
     file O.pbe-n-kjpaw_psl.1.0.0.UPF: wavefunction(s)  2S 2P renormalized

     IMPORTANT: XC functional enforced from input :
     Exchange-correlation= PBE
                           (   1   4   3   4   0   0   0)
     Any further DFT definition will be discarded
     Please, verify this is what you really want


     K-points division:     npool     =      10
     R & G space division:  proc/nbgrp/npool/nimage =       4
     Subspace diagonalization in iterative solution of the eigenvalue problem:
     one sub-group per band group will be used
     custom distributed-memory algorithm (size of sub-group:  2*  2 procs)


     Parallelization info
     --------------------
     sticks:   dense  smooth     PW     G-vecs:    dense   smooth      PW
     Min         237     237     70                41081    41081    6494
     Max         238     238     71                41092    41092    6497
     Sum         949     949    281               164345   164345   25981

     Using Slab Decomposition



     bravais-lattice index     =            0
     lattice parameter (alat)  =      10.7939  a.u.
     unit-cell volume          =    7626.9344 (a.u.)^3
     number of atoms/cell      =           30
     number of atomic types    =            2
     number of electrons       =        96.00 (up:  49.00, down:  47.00)
     number of Kohn-Sham states=           59
     kinetic-energy cutoff     =      29.4000  Ry
     charge density cutoff     =     117.6000  Ry
     scf convergence threshold =      1.0E-06
     mixing beta               =       0.7000
     number of iterations used =            8  plain     mixing
     energy convergence thresh.=      1.0E-04
     force convergence thresh. =      1.0E-03
     Exchange-correlation= PBE
                           (   1   4   3   4   0   0   0)
     nstep                     =          100


     celldm(1)=  10.793946  celldm(2)=   0.000000  celldm(3)=   0.000000
     celldm(4)=   0.000000  celldm(5)=   0.000000  celldm(6)=   0.000000

     crystal axes: (cart. coord. in units of alat)
               a(1) = (   1.000000   0.000000   0.000000 )  
               a(2) = (   0.000000   0.866026   0.000000 )  
               a(3) = (   0.000000   0.000000   7.002911 )  

     reciprocal axes: (cart. coord. in units 2 pi/alat)
               b(1) = (  1.000000  0.000000  0.000000 )  
               b(2) = (  0.000000  1.154700  0.000000 )  
               b(3) = (  0.000000  0.000000  0.142798 )  


     PseudoPot. # 1 for Al read from file:
     ../pseudo/Al.pbe-n-kjpaw_psl.1.0.0.UPF
     MD5 check sum: 502b6b27b9c6270cab5dd1084b96fa6d
     Pseudo is Projector augmented-wave + core cor, Zval =  3.0
     Generated using &quot;atomic&quot; code by A. Dal Corso  v.6.3
     Shape of augmentation charge: PSQ
     Using radial grid of 1135 points,  6 beta functions with: 
                l(1) =   0
                l(2) =   0
                l(3) =   1
                l(4) =   1
                l(5) =   2
                l(6) =   2
     Q(r) pseudized with 0 coefficients 


     PseudoPot. # 2 for O  read from file:
     ../pseudo/O.pbe-n-kjpaw_psl.1.0.0.UPF
     MD5 check sum: e99d9cef9b487d1ca56f5b95ecd0fd7a
     Pseudo is Projector augmented-wave + core cor, Zval =  6.0
     Generated using &quot;atomic&quot; code by A. Dal Corso  v.6.3
     Shape of augmentation charge: PSQ
     Using radial grid of 1095 points,  4 beta functions with: 
                l(1) =   0
                l(2) =   0
                l(3) =   1
                l(4) =   1
     Q(r) pseudized with 0 coefficients 


     atomic species   valence    mass     pseudopotential
     Al                3.00    26.98000     Al( 1.00)
     O                 6.00    15.99000     O ( 1.00)

     Starting magnetic structure 
     atomic species   magnetization
     Al              0.000
     O               0.000

     No symmetry found


                                    s                        frac. trans.

      isym =  1     identity                                     

 cryst.   s( 1) = (     1          0          0      )
                  (     0          1          0      )
                  (     0          0          1      )

 cart.    s( 1) = (  1.0000000  0.0000000  0.0000000 )
                  (  0.0000000  1.0000000  0.0000000 )
                  (  0.0000000  0.0000000  1.0000000 )


   Cartesian axes

     site n.     atom                  positions (alat units)
         1        Al     tau(   1) = (   0.0000000   0.7216868   4.4628399  )
         2        Al     tau(   2) = (   0.5000009   0.7216868   4.4628399  )
         3        Al     tau(   3) = (   0.2500004   0.2886740   4.4628399  )
         4        Al     tau(   4) = (   0.7499996   0.2886740   4.4628399  )
         5        Al     tau(   5) = (   1.2500004   0.0000000   4.0545929  )
         6        Al     tau(   6) = (   0.5000009   0.4330128   4.0545929  )
         7        Al     tau(   7) = (   1.0000000   0.1443370   3.6463442  )
         8        Al     tau(   8) = (   1.0000000   0.4330128   4.0545929  )
         9        Al     tau(   9) = (   0.7499996   0.0000000   4.0545929  )
        10        Al     tau(  10) = (   1.2500004   0.0000000   2.8298468  )
        11        Al     tau(  11) = (   0.7499996   0.2886740   2.0133511  )
        12        Al     tau(  12) = (   1.0000000   0.1443370   2.4215998  )
        13        Al     tau(  13) = (   0.5000009   0.1443370   3.6463442  )
        14        Al     tau(  14) = (   0.7499996   0.5773498   3.6463442  )
        15        Al     tau(  15) = (   0.2500004   0.5773498   3.6463442  )
        16        Al     tau(  16) = (   0.2500004   0.5773498   2.4215998  )
        17        Al     tau(  17) = (   0.7499996   0.2886740   3.2380955  )
        18        Al     tau(  18) = (   0.0000000   0.7216868   3.2380955  )
        19        Al     tau(  19) = (   0.0000000   0.7216868   2.0133511  )
        20        Al     tau(  20) = (   0.5000009   0.4330128   2.8298468  )
        21        Al     tau(  21) = (   0.5000009   0.7216868   3.2380955  )
        22        Al     tau(  22) = (   0.5000009   0.7216868   2.0133511  )
        23        Al     tau(  23) = (   0.5000009   0.1443370   2.4215998  )
        24        Al     tau(  24) = (   1.0000000   0.4330128   2.8298468  )
        25        Al     tau(  25) = (   0.2500004   0.2886740   3.2380955  )
        26        Al     tau(  26) = (   0.2500004   0.2886740   2.0133511  )
        27        Al     tau(  27) = (   0.7499996   0.5773498   2.4215998  )
        28        Al     tau(  28) = (   0.7499996   0.0000000   2.8298468  )
        29        O      tau(  29) = (   1.0001684   0.1442389   4.8304928  )
        30        O      tau(  30) = (   0.4998308   0.4331091   4.8304928  )

   Crystallographic axes

     site n.     atom                  positions (cryst. coord.)
         1        Al     tau(   1) = (  0.0000000  0.8333320  0.6372835  )
         2        Al     tau(   2) = (  0.5000009  0.8333320  0.6372835  )
         3        Al     tau(   3) = (  0.2500004  0.3333320  0.6372835  )
         4        Al     tau(   4) = (  0.7499996  0.3333320  0.6372835  )
         5        Al     tau(   5) = (  1.2500004  0.0000000  0.5789867  )
         6        Al     tau(   6) = (  0.5000009  0.5000000  0.5789867  )
         7        Al     tau(   7) = (  1.0000000  0.1666660  0.5206898  )
         8        Al     tau(   8) = (  1.0000000  0.5000000  0.5789867  )
         9        Al     tau(   9) = (  0.7499996  0.0000000  0.5789867  )
        10        Al     tau(  10) = (  1.2500004  0.0000000  0.4040958  )
        11        Al     tau(  11) = (  0.7499996  0.3333320  0.2875020  )
        12        Al     tau(  12) = (  1.0000000  0.1666660  0.3457990  )
        13        Al     tau(  13) = (  0.5000009  0.1666660  0.5206898  )
        14        Al     tau(  14) = (  0.7499996  0.6666660  0.5206898  )
        15        Al     tau(  15) = (  0.2500004  0.6666660  0.5206898  )
        16        Al     tau(  16) = (  0.2500004  0.6666660  0.3457990  )
        17        Al     tau(  17) = (  0.7499996  0.3333320  0.4623928  )
        18        Al     tau(  18) = (  0.0000000  0.8333320  0.4623928  )
        19        Al     tau(  19) = (  0.0000000  0.8333320  0.2875020  )
        20        Al     tau(  20) = (  0.5000009  0.5000000  0.4040958  )
        21        Al     tau(  21) = (  0.5000009  0.8333320  0.4623928  )
        22        Al     tau(  22) = (  0.5000009  0.8333320  0.2875020  )
        23        Al     tau(  23) = (  0.5000009  0.1666660  0.3457990  )
        24        Al     tau(  24) = (  1.0000000  0.5000000  0.4040958  )
        25        Al     tau(  25) = (  0.2500004  0.3333320  0.4623928  )
        26        Al     tau(  26) = (  0.2500004  0.3333320  0.2875020  )
        27        Al     tau(  27) = (  0.7499996  0.6666660  0.3457990  )
        28        Al     tau(  28) = (  0.7499996  0.0000000  0.4040958  )
        29        O      tau(  29) = (  1.0001684  0.1665527  0.6897835  )
        30        O      tau(  30) = (  0.4998308  0.5001113  0.6897835  )

     number of k points=    10  Methfessel-Paxton smearing, width (Ry)=  0.0140
                       cart. coord. in units 2pi/alat
        k(    1) = (   0.0000000   0.0000000   0.0000000), wk =   0.0625000
        k(    2) = (   0.0000000   0.2886751   0.0000000), wk =   0.1250000
        k(    3) = (   0.0000000  -0.5773502   0.0000000), wk =   0.0625000
        k(    4) = (   0.2500000   0.0000000   0.0000000), wk =   0.1250000
        k(    5) = (   0.2500000   0.2886751   0.0000000), wk =   0.1250000
        k(    6) = (   0.2500000  -0.5773502   0.0000000), wk =   0.1250000
        k(    7) = (  -0.5000000   0.0000000   0.0000000), wk =   0.0625000
        k(    8) = (  -0.5000000   0.2886751   0.0000000), wk =   0.1250000
        k(    9) = (  -0.5000000  -0.5773502   0.0000000), wk =   0.0625000
        k(   10) = (  -0.2500000   0.2886751   0.0000000), wk =   0.1250000

                       cryst. coord.
        k(    1) = (   0.0000000   0.0000000   0.0000000), wk =   0.0625000
        k(    2) = (   0.0000000   0.2500000   0.0000000), wk =   0.1250000
        k(    3) = (   0.0000000  -0.5000000   0.0000000), wk =   0.0625000
        k(    4) = (   0.2500000   0.0000000   0.0000000), wk =   0.1250000
        k(    5) = (   0.2500000   0.2500000   0.0000000), wk =   0.1250000
        k(    6) = (   0.2500000  -0.5000000   0.0000000), wk =   0.1250000
        k(    7) = (  -0.5000000   0.0000000   0.0000000), wk =   0.0625000
        k(    8) = (  -0.5000000   0.2500000   0.0000000), wk =   0.1250000
        k(    9) = (  -0.5000000  -0.5000000   0.0000000), wk =   0.0625000
        k(   10) = (  -0.2500000   0.2500000   0.0000000), wk =   0.1250000

     Dense  grid:   164345 G-vectors     FFT dimensions: (  40,  36, 270)

     Dynamical RAM for                 wfc:       4.62 MB

     Dynamical RAM for     wfc (w. buffer):      13.86 MB

     Dynamical RAM for           str. fact:       1.25 MB

     Dynamical RAM for           local pot:       0.00 MB

     Dynamical RAM for          nlocal pot:      40.72 MB

     Dynamical RAM for                qrad:       1.74 MB

     Dynamical RAM for          rho,v,vnew:       8.24 MB

     Dynamical RAM for               rhoin:       2.75 MB

     Dynamical RAM for            rho*nmix:      20.06 MB

     Dynamical RAM for           G-vectors:       2.66 MB

     Dynamical RAM for          h,s,v(r/c):       0.16 MB

     Dynamical RAM for          <psi|beta>:       0.47 MB

     Dynamical RAM for                 psi:       9.24 MB

     Dynamical RAM for                hpsi:       9.24 MB

     Dynamical RAM for                spsi:       9.24 MB

     Dynamical RAM for      wfcinit/wfcrot:      19.12 MB

     Dynamical RAM for           addusdens:      14.61 MB

     Dynamical RAM for          addusforce:      17.65 MB

     Estimated static dynamical RAM per process >      77.60 MB

     Estimated max dynamical RAM per process >     126.01 MB

     Estimated total dynamical RAM >       4.22 GB

     Check: negative core charge=   -0.000017
     Generating pointlists ...
     new r_m :   0.1928 (alat units)  2.0810 (a.u.) for type    1
     new r_m :   0.1928 (alat units)  2.0810 (a.u.) for type    2

     Initial potential from superposition of free atoms

     starting charge      95.9359, renormalised to      96.0000

     negative rho (up, down):  2.597E-02 2.597E-02
     Starting wfcs are  120 randomized atomic wfcs
     Checking if some PAW data can be deallocated... 
       PAW data deallocated on    2 nodes for type:  1
       PAW data deallocated on   38 nodes for type:  2

     total cpu time spent up to now is       10.6 secs

     Self-consistent Calculation

     iteration #  1     ecut=    29.40 Ry     beta= 0.70
     Davidson diagonalization with overlap

---- Real-time Memory Report at c_bands before calling an iterative solver
           208 MiB given to the printing process from OS
             0 MiB allocation reported by mallinfo(arena+hblkhd)
        229358 MiB available memory on the node where the printing process lives
------------------
     ethr =  1.00E-02,  avg # of iterations =  3.6

     negative rho (up, down):  3.170E-02 3.121E-02

     total cpu time spent up to now is       26.2 secs

     total energy              =   -1184.70182435 Ry
     estimated scf accuracy    <       4.72338554 Ry

     total magnetization       =     2.00 Bohr mag/cell
     absolute magnetization    =     2.00 Bohr mag/cell

     iteration #  2     ecut=    29.40 Ry     beta= 0.70
     Davidson diagonalization with overlap

---- Real-time Memory Report at c_bands before calling an iterative solver
           226 MiB given to the printing process from OS
             0 MiB allocation reported by mallinfo(arena+hblkhd)
        228892 MiB available memory on the node where the printing process lives
------------------
     c_bands:  1 eigenvalues not converged
     ethr =  4.92E-03,  avg # of iterations = 18.5

     negative rho (up, down):  2.916E-02 2.880E-02

     total cpu time spent up to now is       79.7 secs

     total energy              =   -1137.55055653 Ry
     estimated scf accuracy    <    4320.30408521 Ry

     total magnetization       =     2.00 Bohr mag/cell
     absolute magnetization    =     2.00 Bohr mag/cell

     iteration #  3     ecut=    29.40 Ry     beta= 0.70
     Davidson diagonalization with overlap

---- Real-time Memory Report at c_bands before calling an iterative solver
           236 MiB given to the printing process from OS
             0 MiB allocation reported by mallinfo(arena+hblkhd)
        227501 MiB available memory on the node where the printing process lives
------------------
     ethr =  4.92E-03,  avg # of iterations = 17.5

     negative rho (up, down):  2.741E-02 2.707E-02

     total cpu time spent up to now is      135.2 secs

     total energy              =   -1179.53842634 Ry
     estimated scf accuracy    <     301.86897612 Ry

     total magnetization       =     2.00 Bohr mag/cell
     absolute magnetization    =     2.00 Bohr mag/cell

     iteration #  4     ecut=    29.40 Ry     beta= 0.70
     Davidson diagonalization with overlap

---- Real-time Memory Report at c_bands before calling an iterative solver
           240 MiB given to the printing process from OS
             0 MiB allocation reported by mallinfo(arena+hblkhd)
        226140 MiB available memory on the node where the printing process lives
------------------
     ethr =  4.92E-03,  avg # of iterations = 11.4

     negative rho (up, down):  2.628E-02 2.586E-02

     total cpu time spent up to now is      161.1 secs

     total energy              =   -1183.20456408 Ry
     estimated scf accuracy    <     142.55831690 Ry

     total magnetization       =     2.00 Bohr mag/cell
     absolute magnetization    =     2.02 Bohr mag/cell

     iteration #  5     ecut=    29.40 Ry     beta= 0.70
     Davidson diagonalization with overlap

---- Real-time Memory Report at c_bands before calling an iterative solver
           242 MiB given to the printing process from OS
             0 MiB allocation reported by mallinfo(arena+hblkhd)
        225530 MiB available memory on the node where the printing process lives
------------------
     ethr =  4.92E-03,  avg # of iterations =  5.8

     negative rho (up, down):  2.564E-02 2.509E-02

     total cpu time spent up to now is      178.4 secs

     total energy              =   -1187.61636982 Ry
     estimated scf accuracy    <      64.04678416 Ry

     total magnetization       =     2.00 Bohr mag/cell
     absolute magnetization    =     2.01 Bohr mag/cell

     iteration #  6     ecut=    29.40 Ry     beta= 0.70
     Davidson diagonalization with overlap

---- Real-time Memory Report at c_bands before calling an iterative solver
           247 MiB given to the printing process from OS
             0 MiB allocation reported by mallinfo(arena+hblkhd)
        225319 MiB available memory on the node where the printing process lives
------------------
     ethr =  4.92E-03,  avg # of iterations =  2.9

     negative rho (up, down):  2.536E-02 2.436E-02

     total cpu time spent up to now is      191.1 secs

     total energy              =   -1188.24234714 Ry
     estimated scf accuracy    <       3.44993002 Ry

     total magnetization       =     2.00 Bohr mag/cell
     absolute magnetization    =     2.01 Bohr mag/cell

     iteration #  7     ecut=    29.40 Ry     beta= 0.70
     Davidson diagonalization with overlap

---- Real-time Memory Report at c_bands before calling an iterative solver
           249 MiB given to the printing process from OS
             0 MiB allocation reported by mallinfo(arena+hblkhd)
        224845 MiB available memory on the node where the printing process lives
------------------
     ethr =  3.59E-03,  avg # of iterations =  2.2

     negative rho (up, down):  2.569E-02 2.363E-02

     total cpu time spent up to now is      202.9 secs

     total energy              =   -1188.35731926 Ry
     estimated scf accuracy    <       1.68802605 Ry

     total magnetization       =     2.00 Bohr mag/cell
     absolute magnetization    =     2.02 Bohr mag/cell

     iteration #  8     ecut=    29.40 Ry     beta= 0.70
     Davidson diagonalization with overlap

---- Real-time Memory Report at c_bands before calling an iterative solver
           251 MiB given to the printing process from OS
             0 MiB allocation reported by mallinfo(arena+hblkhd)
        227262 MiB available memory on the node where the printing process lives
------------------
     ethr =  1.76E-03,  avg # of iterations =  3.2

     negative rho (up, down):  2.710E-02 2.395E-02

     total cpu time spent up to now is      215.2 secs

     total energy              =   -1188.45609594 Ry
     estimated scf accuracy    <       0.12092558 Ry

     total magnetization       =     2.00 Bohr mag/cell
     absolute magnetization    =     2.05 Bohr mag/cell

     iteration #  9     ecut=    29.40 Ry     beta= 0.70
     Davidson diagonalization with overlap

---- Real-time Memory Report at c_bands before calling an iterative solver
           254 MiB given to the printing process from OS
             0 MiB allocation reported by mallinfo(arena+hblkhd)
        228010 MiB available memory on the node where the printing process lives
------------------
     ethr =  1.26E-04,  avg # of iterations = 11.6

     negative rho (up, down):  2.728E-02 2.403E-02

     total cpu time spent up to now is      237.1 secs

     total energy              =   -1188.55986657 Ry
     estimated scf accuracy    <       1.71805610 Ry

     total magnetization       =     2.00 Bohr mag/cell
     absolute magnetization    =     2.06 Bohr mag/cell

     iteration # 10     ecut=    29.40 Ry     beta= 0.70
     Davidson diagonalization with overlap

---- Real-time Memory Report at c_bands before calling an iterative solver
           257 MiB given to the printing process from OS
             0 MiB allocation reported by mallinfo(arena+hblkhd)
        231397 MiB available memory on the node where the printing process lives
------------------
     ethr =  1.26E-04,  avg # of iterations =  2.0

     negative rho (up, down):  2.695E-02 2.400E-02

     total cpu time spent up to now is      249.3 secs

     total energy              =   -1188.53472782 Ry
     estimated scf accuracy    <       1.33010914 Ry

     total magnetization       =     2.00 Bohr mag/cell
     absolute magnetization    =     2.06 Bohr mag/cell

     iteration # 11     ecut=    29.40 Ry     beta= 0.70
     Davidson diagonalization with overlap

---- Real-time Memory Report at c_bands before calling an iterative solver
           260 MiB given to the printing process from OS
             0 MiB allocation reported by mallinfo(arena+hblkhd)
        231397 MiB available memory on the node where the printing process lives
------------------
     ethr =  1.26E-04,  avg # of iterations =  1.2

     negative rho (up, down):  2.710E-02 2.431E-02

     total cpu time spent up to now is      261.1 secs

     total energy              =   -1188.55071770 Ry
     estimated scf accuracy    <       0.51845824 Ry

     total magnetization       =     2.00 Bohr mag/cell
     absolute magnetization    =     2.06 Bohr mag/cell

     iteration # 12     ecut=    29.40 Ry     beta= 0.70
     Davidson diagonalization with overlap

---- Real-time Memory Report at c_bands before calling an iterative solver
           260 MiB given to the printing process from OS
             0 MiB allocation reported by mallinfo(arena+hblkhd)
        231395 MiB available memory on the node where the printing process lives
------------------
     ethr =  1.26E-04,  avg # of iterations =  4.5

     negative rho (up, down):  2.726E-02 2.418E-02

     total cpu time spent up to now is      276.6 secs

     total energy              =   -1188.44885995 Ry
     estimated scf accuracy    <       4.49795165 Ry

     total magnetization       =     2.00 Bohr mag/cell
     absolute magnetization    =     2.06 Bohr mag/cell

     iteration # 13     ecut=    29.40 Ry     beta= 0.70
     Davidson diagonalization with overlap

---- Real-time Memory Report at c_bands before calling an iterative solver
           260 MiB given to the printing process from OS
             0 MiB allocation reported by mallinfo(arena+hblkhd)
        231385 MiB available memory on the node where the printing process lives
------------------
     ethr =  1.26E-04,  avg # of iterations =  3.5

     negative rho (up, down):  2.825E-02 2.467E-02

     total cpu time spent up to now is      290.6 secs

     total energy              =   -1188.50026572 Ry
     estimated scf accuracy    <       0.77547234 Ry

     total magnetization       =     2.00 Bohr mag/cell
     absolute magnetization    =     2.06 Bohr mag/cell

     iteration # 14     ecut=    29.40 Ry     beta= 0.70
     Davidson diagonalization with overlap

---- Real-time Memory Report at c_bands before calling an iterative solver
           260 MiB given to the printing process from OS
             0 MiB allocation reported by mallinfo(arena+hblkhd)
        231373 MiB available memory on the node where the printing process lives
------------------
     ethr =  1.26E-04,  avg # of iterations =  3.8

     negative rho (up, down):  2.745E-02 2.401E-02

     total cpu time spent up to now is      306.5 secs

     total energy              =   -1188.48301116 Ry
     estimated scf accuracy    <       0.71525949 Ry

     total magnetization       =     2.00 Bohr mag/cell
     absolute magnetization    =     2.08 Bohr mag/cell

     iteration # 15     ecut=    29.40 Ry     beta= 0.70
     Davidson diagonalization with overlap

---- Real-time Memory Report at c_bands before calling an iterative solver
           260 MiB given to the printing process from OS
             0 MiB allocation reported by mallinfo(arena+hblkhd)
        231371 MiB available memory on the node where the printing process lives
------------------
     ethr =  1.26E-04,  avg # of iterations =  3.2

     negative rho (up, down):  2.787E-02 2.366E-02

     total cpu time spent up to now is      320.4 secs

     total energy              =   -1188.53554173 Ry
     estimated scf accuracy    <       0.24550803 Ry

     total magnetization       =     2.00 Bohr mag/cell
     absolute magnetization    =     2.09 Bohr mag/cell

     iteration # 16     ecut=    29.40 Ry     beta= 0.70
     Davidson diagonalization with overlap

---- Real-time Memory Report at c_bands before calling an iterative solver
           260 MiB given to the printing process from OS
             0 MiB allocation reported by mallinfo(arena+hblkhd)
        231380 MiB available memory on the node where the printing process lives
------------------
     ethr =  1.26E-04,  avg # of iterations =  1.1

     negative rho (up, down):  2.842E-02 2.362E-02

     total cpu time spent up to now is      332.0 secs

     total energy              =   -1188.53373316 Ry
     estimated scf accuracy    <       0.10046207 Ry

     total magnetization       =     2.00 Bohr mag/cell
     absolute magnetization    =     2.11 Bohr mag/cell

     iteration # 17     ecut=    29.40 Ry     beta= 0.70
     Davidson diagonalization with overlap

---- Real-time Memory Report at c_bands before calling an iterative solver
           260 MiB given to the printing process from OS
             0 MiB allocation reported by mallinfo(arena+hblkhd)
        231381 MiB available memory on the node where the printing process lives
------------------
     ethr =  1.05E-04,  avg # of iterations =  1.1

     negative rho (up, down):  2.880E-02 2.354E-02

     total cpu time spent up to now is      343.7 secs

     total energy              =   -1188.53611004 Ry
     estimated scf accuracy    <       0.04015588 Ry

     total magnetization       =     2.00 Bohr mag/cell
     absolute magnetization    =     2.12 Bohr mag/cell

     iteration # 18     ecut=    29.40 Ry     beta= 0.70
     Davidson diagonalization with overlap

---- Real-time Memory Report at c_bands before calling an iterative solver
           260 MiB given to the printing process from OS
             0 MiB allocation reported by mallinfo(arena+hblkhd)
        231573 MiB available memory on the node where the printing process lives
------------------
     ethr =  4.18E-05,  avg # of iterations =  1.5

     negative rho (up, down):  2.895E-02 2.360E-02

     total cpu time spent up to now is      355.6 secs

     total energy              =   -1188.53816426 Ry
     estimated scf accuracy    <       0.19135646 Ry

     total magnetization       =     2.00 Bohr mag/cell
     absolute magnetization    =     2.14 Bohr mag/cell

     iteration # 19     ecut=    29.40 Ry     beta= 0.70
     Davidson diagonalization with overlap

---- Real-time Memory Report at c_bands before calling an iterative solver
           261 MiB given to the printing process from OS
             0 MiB allocation reported by mallinfo(arena+hblkhd)
        231568 MiB available memory on the node where the printing process lives
------------------
     ethr =  4.18E-05,  avg # of iterations =  1.0

     negative rho (up, down):  2.922E-02 2.367E-02

     total cpu time spent up to now is      367.2 secs

     total energy              =   -1188.53843283 Ry
     estimated scf accuracy    <       0.06910848 Ry

     total magnetization       =     2.00 Bohr mag/cell
     absolute magnetization    =     2.16 Bohr mag/cell

     iteration # 20     ecut=    29.40 Ry     beta= 0.70
     Davidson diagonalization with overlap

---- Real-time Memory Report at c_bands before calling an iterative solver
           261 MiB given to the printing process from OS
             0 MiB allocation reported by mallinfo(arena+hblkhd)
        231596 MiB available memory on the node where the printing process lives
------------------
     ethr =  4.18E-05,  avg # of iterations =  1.1

     negative rho (up, down):  2.958E-02 2.353E-02

     total cpu time spent up to now is      378.9 secs

     total energy              =   -1188.53829300 Ry
     estimated scf accuracy    <       0.08208133 Ry

     total magnetization       =     2.00 Bohr mag/cell
     absolute magnetization    =     2.17 Bohr mag/cell

     iteration # 21     ecut=    29.40 Ry     beta= 0.70
     Davidson diagonalization with overlap

---- Real-time Memory Report at c_bands before calling an iterative solver
           261 MiB given to the printing process from OS
             0 MiB allocation reported by mallinfo(arena+hblkhd)
        231595 MiB available memory on the node where the printing process lives
------------------
     ethr =  4.18E-05,  avg # of iterations =  1.0

     negative rho (up, down):  2.987E-02 2.345E-02

     total cpu time spent up to now is      390.5 secs

     total energy              =   -1188.54073737 Ry
     estimated scf accuracy    <       0.03635361 Ry

     total magnetization       =     2.00 Bohr mag/cell
     absolute magnetization    =     2.20 Bohr mag/cell

     iteration # 22     ecut=    29.40 Ry     beta= 0.70
     Davidson diagonalization with overlap

---- Real-time Memory Report at c_bands before calling an iterative solver
           261 MiB given to the printing process from OS
             0 MiB allocation reported by mallinfo(arena+hblkhd)
        231599 MiB available memory on the node where the printing process lives
------------------
     ethr =  3.79E-05,  avg # of iterations =  1.1

     negative rho (up, down):  2.961E-02 2.352E-02

     total cpu time spent up to now is      402.0 secs

     total energy              =   -1188.53995301 Ry
     estimated scf accuracy    <       0.01973934 Ry

     total magnetization       =     2.00 Bohr mag/cell
     absolute magnetization    =     2.22 Bohr mag/cell

     iteration # 23     ecut=    29.40 Ry     beta= 0.70
     Davidson diagonalization with overlap

---- Real-time Memory Report at c_bands before calling an iterative solver
           261 MiB given to the printing process from OS
             0 MiB allocation reported by mallinfo(arena+hblkhd)
        231585 MiB available memory on the node where the printing process lives
------------------
     ethr =  2.06E-05,  avg # of iterations =  1.1

     negative rho (up, down):  3.122E-02 2.364E-02

     total cpu time spent up to now is      413.7 secs

     total energy              =   -1188.53996461 Ry
     estimated scf accuracy    <       0.14226599 Ry

     total magnetization       =     2.00 Bohr mag/cell
     absolute magnetization    =     2.22 Bohr mag/cell

     iteration # 24     ecut=    29.40 Ry     beta= 0.70
     Davidson diagonalization with overlap

---- Real-time Memory Report at c_bands before calling an iterative solver
           261 MiB given to the printing process from OS
             0 MiB allocation reported by mallinfo(arena+hblkhd)
        231576 MiB available memory on the node where the printing process lives
------------------
     ethr =  2.06E-05,  avg # of iterations =  2.4

     negative rho (up, down):  3.129E-02 2.364E-02

     total cpu time spent up to now is      425.8 secs

     total energy              =   -1188.54280426 Ry
     estimated scf accuracy    <       0.02929645 Ry

     total magnetization       =     2.00 Bohr mag/cell
     absolute magnetization    =     2.32 Bohr mag/cell

     iteration # 25     ecut=    29.40 Ry     beta= 0.70
     Davidson diagonalization with overlap

---- Real-time Memory Report at c_bands before calling an iterative solver
           261 MiB given to the printing process from OS
             0 MiB allocation reported by mallinfo(arena+hblkhd)
        231581 MiB available memory on the node where the printing process lives
------------------
     ethr =  2.06E-05,  avg # of iterations =  1.1

     negative rho (up, down):  3.154E-02 2.370E-02

     total cpu time spent up to now is      437.5 secs

     total energy              =   -1188.54294731 Ry
     estimated scf accuracy    <       0.00855387 Ry

     total magnetization       =     2.00 Bohr mag/cell
     absolute magnetization    =     2.33 Bohr mag/cell

     iteration # 26     ecut=    29.40 Ry     beta= 0.70
     Davidson diagonalization with overlap

---- Real-time Memory Report at c_bands before calling an iterative solver
           261 MiB given to the printing process from OS
             0 MiB allocation reported by mallinfo(arena+hblkhd)
        231584 MiB available memory on the node where the printing process lives
------------------
     ethr =  8.91E-06,  avg # of iterations =  1.6

     negative rho (up, down):  3.198E-02 2.381E-02

     total cpu time spent up to now is      449.3 secs

     total energy              =   -1188.54295867 Ry
     estimated scf accuracy    <       0.00448935 Ry

     total magnetization       =     2.00 Bohr mag/cell
     absolute magnetization    =     2.36 Bohr mag/cell

     iteration # 27     ecut=    29.40 Ry     beta= 0.70
     Davidson diagonalization with overlap

---- Real-time Memory Report at c_bands before calling an iterative solver
           261 MiB given to the printing process from OS
             0 MiB allocation reported by mallinfo(arena+hblkhd)
        231588 MiB available memory on the node where the printing process lives
------------------
     ethr =  4.68E-06,  avg # of iterations =  3.0

     negative rho (up, down):  3.193E-02 2.373E-02

     total cpu time spent up to now is      461.6 secs

     total energy              =   -1188.54335299 Ry
     estimated scf accuracy    <       0.00013458 Ry

     total magnetization       =     2.00 Bohr mag/cell
     absolute magnetization    =     2.39 Bohr mag/cell

     iteration # 28     ecut=    29.40 Ry     beta= 0.70
     Davidson diagonalization with overlap

---- Real-time Memory Report at c_bands before calling an iterative solver
           261 MiB given to the printing process from OS
             0 MiB allocation reported by mallinfo(arena+hblkhd)
        231608 MiB available memory on the node where the printing process lives
------------------
     c_bands:  1 eigenvalues not converged
     ethr =  1.40E-07,  avg # of iterations = 10.2

     negative rho (up, down):  3.195E-02 2.370E-02

     total cpu time spent up to now is      478.8 secs

     total energy              =   -1188.54344914 Ry
     estimated scf accuracy    <       0.00019174 Ry

     total magnetization       =     2.00 Bohr mag/cell
     absolute magnetization    =     2.40 Bohr mag/cell

     iteration # 29     ecut=    29.40 Ry     beta= 0.70
     Davidson diagonalization with overlap

---- Real-time Memory Report at c_bands before calling an iterative solver
           261 MiB given to the printing process from OS
             0 MiB allocation reported by mallinfo(arena+hblkhd)
        231612 MiB available memory on the node where the printing process lives
------------------
     ethr =  1.40E-07,  avg # of iterations =  2.1

     negative rho (up, down):  3.199E-02 2.368E-02

     total cpu time spent up to now is      490.9 secs

     total energy              =   -1188.54346039 Ry
     estimated scf accuracy    <       0.00007836 Ry

     total magnetization       =     2.00 Bohr mag/cell
     absolute magnetization    =     2.40 Bohr mag/cell

     iteration # 30     ecut=    29.40 Ry     beta= 0.70
     Davidson diagonalization with overlap

---- Real-time Memory Report at c_bands before calling an iterative solver
           261 MiB given to the printing process from OS
             0 MiB allocation reported by mallinfo(arena+hblkhd)
        231613 MiB available memory on the node where the printing process lives
------------------
     ethr =  8.16E-08,  avg # of iterations =  1.4

     negative rho (up, down):  3.202E-02 2.368E-02

     total cpu time spent up to now is      502.7 secs

     total energy              =   -1188.54346601 Ry
     estimated scf accuracy    <       0.00005169 Ry

     total magnetization       =     2.00 Bohr mag/cell
     absolute magnetization    =     2.40 Bohr mag/cell

     iteration # 31     ecut=    29.40 Ry     beta= 0.70
     Davidson diagonalization with overlap

---- Real-time Memory Report at c_bands before calling an iterative solver
           261 MiB given to the printing process from OS
             0 MiB allocation reported by mallinfo(arena+hblkhd)
        231603 MiB available memory on the node where the printing process lives
------------------
     ethr =  5.38E-08,  avg # of iterations =  1.6

     negative rho (up, down):  3.206E-02 2.366E-02

     total cpu time spent up to now is      514.6 secs

     total energy              =   -1188.54347171 Ry
     estimated scf accuracy    <       0.00002916 Ry

     total magnetization       =     2.00 Bohr mag/cell
     absolute magnetization    =     2.41 Bohr mag/cell

     iteration # 32     ecut=    29.40 Ry     beta= 0.70
     Davidson diagonalization with overlap

---- Real-time Memory Report at c_bands before calling an iterative solver
           261 MiB given to the printing process from OS
             0 MiB allocation reported by mallinfo(arena+hblkhd)
        231595 MiB available memory on the node where the printing process lives
------------------
     ethr =  3.04E-08,  avg # of iterations =  2.2

     negative rho (up, down):  3.234E-02 2.349E-02

     total cpu time spent up to now is      527.3 secs

     total energy              =   -1188.54344380 Ry
     estimated scf accuracy    <       0.00002879 Ry

     total magnetization       =     2.00 Bohr mag/cell
     absolute magnetization    =     2.41 Bohr mag/cell

     iteration # 33     ecut=    29.40 Ry     beta= 0.70
     Davidson diagonalization with overlap

---- Real-time Memory Report at c_bands before calling an iterative solver
           261 MiB given to the printing process from OS
             0 MiB allocation reported by mallinfo(arena+hblkhd)
        231600 MiB available memory on the node where the printing process lives
------------------
     ethr =  3.00E-08,  avg # of iterations =  7.0

     negative rho (up, down):  3.223E-02 2.355E-02

     total cpu time spent up to now is      544.9 secs

     total energy              =   -1188.54347249 Ry
     estimated scf accuracy    <       0.00079086 Ry

     total magnetization       =     2.00 Bohr mag/cell
     absolute magnetization    =     2.44 Bohr mag/cell

     iteration # 34     ecut=    29.40 Ry     beta= 0.70
     Davidson diagonalization with overlap

---- Real-time Memory Report at c_bands before calling an iterative solver
           261 MiB given to the printing process from OS
             0 MiB allocation reported by mallinfo(arena+hblkhd)
        231598 MiB available memory on the node where the printing process lives
------------------
     ethr =  3.00E-08,  avg # of iterations =  3.0

     negative rho (up, down):  3.223E-02 2.353E-02

     total cpu time spent up to now is      558.3 secs

     total energy              =   -1188.54349049 Ry
     estimated scf accuracy    <       0.00002566 Ry

     total magnetization       =     2.00 Bohr mag/cell
     absolute magnetization    =     2.43 Bohr mag/cell

     iteration # 35     ecut=    29.40 Ry     beta= 0.70
     Davidson diagonalization with overlap

---- Real-time Memory Report at c_bands before calling an iterative solver
           261 MiB given to the printing process from OS
             0 MiB allocation reported by mallinfo(arena+hblkhd)
        231596 MiB available memory on the node where the printing process lives
------------------
     ethr =  2.67E-08,  avg # of iterations =  1.5

     negative rho (up, down):  3.221E-02 2.354E-02

     total cpu time spent up to now is      570.2 secs

     total energy              =   -1188.54348958 Ry
     estimated scf accuracy    <       0.00001534 Ry

     total magnetization       =     2.00 Bohr mag/cell
     absolute magnetization    =     2.43 Bohr mag/cell

     iteration # 36     ecut=    29.40 Ry     beta= 0.70
     Davidson diagonalization with overlap

---- Real-time Memory Report at c_bands before calling an iterative solver
           261 MiB given to the printing process from OS
             0 MiB allocation reported by mallinfo(arena+hblkhd)
        231622 MiB available memory on the node where the printing process lives
------------------
     ethr =  1.60E-08,  avg # of iterations =  2.1

     negative rho (up, down):  3.224E-02 2.352E-02

     total cpu time spent up to now is      582.4 secs

     total energy              =   -1188.54349083 Ry
     estimated scf accuracy    <       0.00002309 Ry

     total magnetization       =     2.00 Bohr mag/cell
     absolute magnetization    =     2.43 Bohr mag/cell

     iteration # 37     ecut=    29.40 Ry     beta= 0.70
     Davidson diagonalization with overlap

---- Real-time Memory Report at c_bands before calling an iterative solver
           261 MiB given to the printing process from OS
             0 MiB allocation reported by mallinfo(arena+hblkhd)
        231637 MiB available memory on the node where the printing process lives
------------------
     ethr =  1.60E-08,  avg # of iterations =  1.1

     negative rho (up, down):  3.228E-02 2.348E-02

     total cpu time spent up to now is      594.1 secs

     total energy              =   -1188.54349203 Ry
     estimated scf accuracy    <       0.00000813 Ry

     total magnetization       =     2.00 Bohr mag/cell
     absolute magnetization    =     2.43 Bohr mag/cell

     iteration # 38     ecut=    29.40 Ry     beta= 0.70
     Davidson diagonalization with overlap

---- Real-time Memory Report at c_bands before calling an iterative solver
           261 MiB given to the printing process from OS
             0 MiB allocation reported by mallinfo(arena+hblkhd)
        231634 MiB available memory on the node where the printing process lives
------------------
     ethr =  8.47E-09,  avg # of iterations =  2.6

     negative rho (up, down):  3.231E-02 2.345E-02

     total cpu time spent up to now is      606.7 secs

     total energy              =   -1188.54349355 Ry
     estimated scf accuracy    <       0.00001411 Ry

     total magnetization       =     2.00 Bohr mag/cell
     absolute magnetization    =     2.43 Bohr mag/cell

     iteration # 39     ecut=    29.40 Ry     beta= 0.70
     Davidson diagonalization with overlap

---- Real-time Memory Report at c_bands before calling an iterative solver
           261 MiB given to the printing process from OS
             0 MiB allocation reported by mallinfo(arena+hblkhd)
        231634 MiB available memory on the node where the printing process lives
------------------
     ethr =  8.47E-09,  avg # of iterations =  2.5

     negative rho (up, down):  3.228E-02 2.346E-02

     total cpu time spent up to now is      618.9 secs

     total energy              =   -1188.54349383 Ry
     estimated scf accuracy    <       0.00000786 Ry

     total magnetization       =     2.00 Bohr mag/cell
     absolute magnetization    =     2.43 Bohr mag/cell

     iteration # 40     ecut=    29.40 Ry     beta= 0.70
     Davidson diagonalization with overlap

---- Real-time Memory Report at c_bands before calling an iterative solver
           261 MiB given to the printing process from OS
             0 MiB allocation reported by mallinfo(arena+hblkhd)
        231634 MiB available memory on the node where the printing process lives
------------------
     ethr =  8.19E-09,  avg # of iterations =  1.8

     negative rho (up, down):  3.229E-02 2.344E-02

     total cpu time spent up to now is      630.9 secs

     total energy              =   -1188.54349491 Ry
     estimated scf accuracy    <       0.00000548 Ry

     total magnetization       =     2.00 Bohr mag/cell
     absolute magnetization    =     2.43 Bohr mag/cell

     iteration # 41     ecut=    29.40 Ry     beta= 0.70
     Davidson diagonalization with overlap

---- Real-time Memory Report at c_bands before calling an iterative solver
           261 MiB given to the printing process from OS
             0 MiB allocation reported by mallinfo(arena+hblkhd)
        231633 MiB available memory on the node where the printing process lives
------------------
     ethr =  5.71E-09,  avg # of iterations =  1.6

     negative rho (up, down):  3.231E-02 2.341E-02

     total cpu time spent up to now is      642.8 secs

     total energy              =   -1188.54349467 Ry
     estimated scf accuracy    <       0.00000378 Ry

     total magnetization       =     2.00 Bohr mag/cell
     absolute magnetization    =     2.43 Bohr mag/cell

     iteration # 42     ecut=    29.40 Ry     beta= 0.70
     Davidson diagonalization with overlap

---- Real-time Memory Report at c_bands before calling an iterative solver
           261 MiB given to the printing process from OS
             0 MiB allocation reported by mallinfo(arena+hblkhd)
        231620 MiB available memory on the node where the printing process lives
------------------
     ethr =  3.94E-09,  avg # of iterations =  3.5

     negative rho (up, down):  3.230E-02 2.343E-02

     total cpu time spent up to now is      655.8 secs

     total energy              =   -1188.54349509 Ry
     estimated scf accuracy    <       0.00000226 Ry

     total magnetization       =     2.00 Bohr mag/cell
     absolute magnetization    =     2.43 Bohr mag/cell

     iteration # 43     ecut=    29.40 Ry     beta= 0.70
     Davidson diagonalization with overlap

---- Real-time Memory Report at c_bands before calling an iterative solver
           261 MiB given to the printing process from OS
             0 MiB allocation reported by mallinfo(arena+hblkhd)
        231620 MiB available memory on the node where the printing process lives
------------------
     ethr =  2.35E-09,  avg # of iterations =  2.2

     negative rho (up, down):  3.231E-02 2.341E-02

     total cpu time spent up to now is      667.9 secs

     total energy              =   -1188.54349540 Ry
     estimated scf accuracy    <       0.00000823 Ry

     total magnetization       =     2.00 Bohr mag/cell
     absolute magnetization    =     2.43 Bohr mag/cell

     iteration # 44     ecut=    29.40 Ry     beta= 0.70
     Davidson diagonalization with overlap

---- Real-time Memory Report at c_bands before calling an iterative solver
           261 MiB given to the printing process from OS
             0 MiB allocation reported by mallinfo(arena+hblkhd)
        231626 MiB available memory on the node where the printing process lives
------------------
     ethr =  2.35E-09,  avg # of iterations =  1.3

     negative rho (up, down):  3.231E-02 2.339E-02

     total cpu time spent up to now is      679.5 secs

     total energy              =   -1188.54349549 Ry
     estimated scf accuracy    <       0.00000346 Ry

     total magnetization       =     2.00 Bohr mag/cell
     absolute magnetization    =     2.43 Bohr mag/cell

     iteration # 45     ecut=    29.40 Ry     beta= 0.70
     Davidson diagonalization with overlap

---- Real-time Memory Report at c_bands before calling an iterative solver
           261 MiB given to the printing process from OS
             0 MiB allocation reported by mallinfo(arena+hblkhd)
        231626 MiB available memory on the node where the printing process lives
------------------
     ethr =  2.35E-09,  avg # of iterations =  2.1

     negative rho (up, down):  3.231E-02 2.340E-02

     Magnetic moment per site  (integrated on atomic sphere of radius R)
     atom   1 (R=0.193)  charge=  1.2818  magn=  0.0094
     atom   2 (R=0.193)  charge=  1.2816  magn=  0.0060
     atom   3 (R=0.193)  charge=  1.2591  magn= -0.0145
     atom   4 (R=0.193)  charge=  1.2591  magn= -0.0145
     atom   5 (R=0.193)  charge=  1.3899  magn=  0.0084
     atom   6 (R=0.193)  charge=  1.3907  magn=  0.0015
     atom   7 (R=0.193)  charge=  1.3919  magn=  0.0047
     atom   8 (R=0.193)  charge=  1.3911  magn=  0.0130
     atom   9 (R=0.193)  charge=  1.3899  magn=  0.0084
     atom  10 (R=0.193)  charge=  1.3937  magn=  0.0091
     atom  11 (R=0.193)  charge=  1.3222  magn=  0.0107
     atom  12 (R=0.193)  charge=  1.3947  magn=  0.0088
     atom  13 (R=0.193)  charge=  1.3933  magn=  0.0127
     atom  14 (R=0.193)  charge=  1.3944  magn=  0.0137
     atom  15 (R=0.193)  charge=  1.3944  magn=  0.0137
     atom  16 (R=0.193)  charge=  1.3948  magn=  0.0097
     atom  17 (R=0.193)  charge=  1.3929  magn=  0.0063
     atom  18 (R=0.193)  charge=  1.3931  magn=  0.0085
     atom  19 (R=0.193)  charge=  1.3213  magn=  0.0111
     atom  20 (R=0.193)  charge=  1.3940  magn=  0.0078
     atom  21 (R=0.193)  charge=  1.3929  magn=  0.0109
     atom  22 (R=0.193)  charge=  1.3223  magn=  0.0096
     atom  23 (R=0.193)  charge=  1.3963  magn=  0.0093
     atom  24 (R=0.193)  charge=  1.3958  magn=  0.0065
     atom  25 (R=0.193)  charge=  1.3930  magn=  0.0063
     atom  26 (R=0.193)  charge=  1.3222  magn=  0.0107
     atom  27 (R=0.193)  charge=  1.3948  magn=  0.0097
     atom  28 (R=0.193)  charge=  1.3937  magn=  0.0091
     atom  29 (R=0.193)  charge=  5.9404  magn=  0.6894
     atom  30 (R=0.193)  charge=  5.9234  magn=  0.8300

     total cpu time spent up to now is      691.6 secs

     End of self-consistent calculation

 ------ SPIN UP ------------


          k = 0.0000 0.0000 0.0000 ( 20545 PWs)   bands (ev):

   -17.0835 -16.7909 -11.1553 -10.7642 -10.1644  -9.3068  -8.2119  -6.9125
    -6.6931  -6.6920  -6.3186  -6.3158  -5.7483  -5.7417  -5.3955  -5.2420
    -5.2384  -4.9366  -4.9271  -4.9037  -4.8413  -4.3463  -4.2856  -3.9324
    -3.9164  -3.9082  -3.5738  -3.5329  -2.9391  -2.8448  -2.6698  -2.3710
    -2.2681  -2.2524  -1.8709  -1.6985  -1.6478  -1.5155  -1.3512  -1.2221
    -1.1427  -0.9938  -0.9892  -0.9783  -0.9513  -0.8222  -0.7432  -0.7252
    -0.6413  -0.4497  -0.3836  -0.0269  -0.0099   0.1806   0.3229   0.3715
     0.5432   0.6772   0.6802

     occupation numbers 
     1.0000   1.0000   1.0000   1.0000   1.0000   1.0000   1.0000   1.0000
     1.0000   1.0000   1.0000   1.0000   1.0000   1.0000   1.0000   1.0000
     1.0000   1.0000   1.0000   1.0000   1.0000   1.0000   1.0000   1.0000
     1.0000   1.0000   1.0000   1.0000   1.0000   1.0000   1.0000   1.0000
     1.0000   1.0000   1.0000   1.0000   1.0000   1.0000   1.0000   1.0000
     1.0000   1.0000   1.0000   1.0000   1.0000   1.0000   1.0000   1.0000
     1.0001   1.0090   1.0222   0.2919   0.2270  -0.0336  -0.0059  -0.0022
    -0.0000  -0.0000  -0.0000

          k = 0.0000 0.2887 0.0000 ( 20546 PWs)   bands (ev):

   -17.0791 -16.7920 -10.7779 -10.3881  -9.7905  -8.9357  -7.8446  -7.7949
    -7.4152  -6.8349  -6.5503  -6.3279  -6.3270  -6.0060  -5.9550  -5.9527
    -5.3879  -5.3832  -5.0403  -4.9561  -4.5846  -4.5790  -3.7502  -3.6296
    -3.6202  -3.5954  -3.4261  -3.4141  -3.1013  -3.0933  -2.7640  -2.7500
    -2.6023  -2.5388  -2.3986  -2.1165  -2.0909  -2.0387  -1.9253  -1.7396
    -1.6173  -1.5760  -1.4410  -1.3964  -1.2490  -1.0196  -0.8504  -0.4779
    -0.4229  -0.3576  -0.3504  -0.1309  -0.0140   0.5418   0.7189   0.8329
     0.8980   0.9276   1.0541

     occupation numbers 
     1.0000   1.0000   1.0000   1.0000   1.0000   1.0000   1.0000   1.0000
     1.0000   1.0000   1.0000   1.0000   1.0000   1.0000   1.0000   1.0000
     1.0000   1.0000   1.0000   1.0000   1.0000   1.0000   1.0000   1.0000
     1.0000   1.0000   1.0000   1.0000   1.0000   1.0000   1.0000   1.0000
     1.0000   1.0000   1.0000   1.0000   1.0000   1.0000   1.0000   1.0000
     1.0000   1.0000   1.0000   1.0000   1.0000   1.0000   1.0000   1.0055
     1.0135   1.0285   1.0301   0.7352   0.2421  -0.0000  -0.0000  -0.0000
    -0.0000  -0.0000  -0.0000

          k = 0.0000-0.5774 0.0000 ( 20588 PWs)   bands (ev):

   -17.0747 -16.7933  -9.6539  -9.6498  -9.2696  -9.2620  -8.6792  -8.6697
    -7.8353  -7.8215  -6.7585  -6.7403  -5.4831  -5.4649  -5.2439  -5.2438
    -5.2370  -5.2364  -4.9056  -4.9034  -4.8414  -4.8408  -4.3506  -4.3415
    -4.2916  -4.2871  -4.0056  -3.9985  -3.5924  -3.5776  -3.5542  -3.5151
    -2.8211  -2.7985  -2.7145  -2.6572  -2.5829  -2.3043  -1.8805  -1.8041
    -1.6779  -1.6057  -1.4736  -1.4138  -0.9361  -0.8196  -0.8185  -0.7545
    -0.2770  -0.1130   0.5351   0.6021   0.6376   0.7545   1.2986   1.4068
     1.9041   1.9344   2.0081

     occupation numbers 
     1.0000   1.0000   1.0000   1.0000   1.0000   1.0000   1.0000   1.0000
     1.0000   1.0000   1.0000   1.0000   1.0000   1.0000   1.0000   1.0000
     1.0000   1.0000   1.0000   1.0000   1.0000   1.0000   1.0000   1.0000
     1.0000   1.0000   1.0000   1.0000   1.0000   1.0000   1.0000   1.0000
     1.0000   1.0000   1.0000   1.0000   1.0000   1.0000   1.0000   1.0000
     1.0000   1.0000   1.0000   1.0000   1.0000   1.0000   1.0000   1.0000
     1.0301   0.6632  -0.0000  -0.0000  -0.0000  -0.0000  -0.0000  -0.0000
    -0.0000  -0.0000  -0.0000

          k = 0.2500 0.0000 0.0000 ( 20445 PWs)   bands (ev):

   -17.0738 -16.8006 -10.8722 -10.4820  -9.8838  -9.0282  -8.6274  -8.2448
    -7.9360  -7.6591  -6.8219  -6.6404  -5.7568  -5.1281  -4.9712  -4.9674
    -4.6360  -4.5713  -4.5095  -4.2487  -4.0839  -4.0160  -3.8902  -3.6756
    -3.3731  -3.3118  -3.2803  -3.1445  -2.8486  -2.8307  -2.7094  -2.5316
    -2.4795  -2.4579  -2.3251  -2.1996  -2.1353  -2.0047  -1.9510  -1.8769
    -1.7769  -1.5662  -1.4927  -1.4323  -1.1737  -1.1379  -0.9632  -0.7998
    -0.6021  -0.5247  -0.2719   0.3802   0.4394   0.4898   0.6731   0.8086
     0.8923   1.2601   1.5169

     occupation numbers 
     1.0000   1.0000   1.0000   1.0000   1.0000   1.0000   1.0000   1.0000
     1.0000   1.0000   1.0000   1.0000   1.0000   1.0000   1.0000   1.0000
     1.0000   1.0000   1.0000   1.0000   1.0000   1.0000   1.0000   1.0000
     1.0000   1.0000   1.0000   1.0000   1.0000   1.0000   1.0000   1.0000
     1.0000   1.0000   1.0000   1.0000   1.0000   1.0000   1.0000   1.0000
     1.0000   1.0000   1.0000   1.0000   1.0000   1.0000   1.0000   1.0000
     1.0003   1.0021   1.0281  -0.0019  -0.0004  -0.0001  -0.0000  -0.0000
    -0.0000  -0.0000  -0.0000

          k = 0.2500 0.2887 0.0000 ( 20544 PWs)   bands (ev):

   -17.0708 -16.8004 -10.4956 -10.1067  -9.5106  -8.6580  -8.2568  -7.8755
    -7.5697  -7.5184  -7.2922  -7.1397  -6.5614  -6.4585  -6.2796  -5.7355
    -5.4004  -5.3285  -4.9607  -4.7764  -4.6922  -4.4056  -4.1700  -3.8993
    -3.6373  -3.5282  -3.4936  -3.3625  -3.0210  -2.8981  -2.7394  -2.5205
    -2.2733  -2.1122  -1.9445  -1.8993  -1.7781  -1.6483  -1.5601  -1.4908
    -1.2603  -1.1389  -1.0532  -0.8918  -0.8083  -0.6946  -0.6077  -0.3899
    -0.0105   0.1065   0.1771   0.2035   0.2622   0.4635   0.7100   0.8083
     0.9191   1.0977   1.1979

     occupation numbers 
     1.0000   1.0000   1.0000   1.0000   1.0000   1.0000   1.0000   1.0000
     1.0000   1.0000   1.0000   1.0000   1.0000   1.0000   1.0000   1.0000
     1.0000   1.0000   1.0000   1.0000   1.0000   1.0000   1.0000   1.0000
     1.0000   1.0000   1.0000   1.0000   1.0000   1.0000   1.0000   1.0000
     1.0000   1.0000   1.0000   1.0000   1.0000   1.0000   1.0000   1.0000
     1.0000   1.0000   1.0000   1.0000   1.0000   1.0000   1.0003   1.0207
     0.2291  -0.0198  -0.0341  -0.0292  -0.0155  -0.0002  -0.0000  -0.0000
    -0.0000  -0.0000  -0.0000

          k = 0.2500-0.5774 0.0000 ( 20558 PWs)   bands (ev):

   -17.0676 -16.8002  -9.3737  -9.3697  -8.9903  -8.9830  -8.4013  -8.3924
    -7.5596  -7.5467  -7.1527  -7.1491  -6.7762  -6.7712  -6.4859  -6.4695
    -6.1996  -6.1963  -5.3787  -5.3781  -5.2156  -5.2011  -4.3562  -4.3442
    -3.7579  -3.7524  -3.2592  -3.1984  -2.8163  -2.8018  -2.6262  -2.5557
    -2.5366  -2.5047  -2.3499  -2.2120  -2.0298  -1.8892  -1.5692  -1.5604
    -1.3756  -1.2745  -1.1494  -0.9610  -0.7291  -0.7139  -0.1198   0.0183
     0.0493   0.1880   0.3782   0.4310   1.3340   1.3866   1.5305   1.6429
     1.9961   2.1151   2.2882

     occupation numbers 
     1.0000   1.0000   1.0000   1.0000   1.0000   1.0000   1.0000   1.0000
     1.0000   1.0000   1.0000   1.0000   1.0000   1.0000   1.0000   1.0000
     1.0000   1.0000   1.0000   1.0000   1.0000   1.0000   1.0000   1.0000
     1.0000   1.0000   1.0000   1.0000   1.0000   1.0000   1.0000   1.0000
     1.0000   1.0000   1.0000   1.0000   1.0000   1.0000   1.0000   1.0000
     1.0000   1.0000   1.0000   1.0000   1.0000   1.0000   0.6913   0.1340
     0.0568  -0.0324  -0.0019  -0.0006  -0.0000  -0.0000  -0.0000  -0.0000
    -0.0000  -0.0000  -0.0000

          k =-0.5000 0.0000 0.0000 ( 20498 PWs)   bands (ev):

   -17.0635 -16.8112 -10.0266 -10.0258  -9.6392  -9.6385  -9.0470  -9.0436
    -8.1983  -8.1940  -7.1128  -7.1127  -5.8307  -5.8298  -4.3433  -4.3425
    -4.1633  -4.1623  -4.1587  -4.1583  -3.8364  -3.8360  -3.7679  -3.7664
    -3.3100  -3.3087  -3.2214  -3.2192  -3.0023  -2.9831  -2.6211  -2.5821
    -2.5394  -2.5288  -2.2109  -2.1022  -1.8624  -1.7554  -1.6446  -1.6166
    -1.4205  -1.4123  -1.3284  -1.3236  -1.0033  -0.9681  -0.9267  -0.8802
    -0.5845  -0.5560  -0.5135  -0.4431  -0.0918  -0.0222   0.3003   0.3758
     0.9028   0.9687   1.2078

     occupation numbers 
     1.0000   1.0000   1.0000   1.0000   1.0000   1.0000   1.0000   1.0000
     1.0000   1.0000   1.0000   1.0000   1.0000   1.0000   1.0000   1.0000
     1.0000   1.0000   1.0000   1.0000   1.0000   1.0000   1.0000   1.0000
     1.0000   1.0000   1.0000   1.0000   1.0000   1.0000   1.0000   1.0000
     1.0000   1.0000   1.0000   1.0000   1.0000   1.0000   1.0000   1.0000
     1.0000   1.0000   1.0000   1.0000   1.0000   1.0000   1.0000   1.0000
     1.0005   1.0010   1.0027   1.0100   0.5724   0.2731  -0.0087  -0.0020
    -0.0000  -0.0000  -0.0000

          k =-0.5000 0.2887 0.0000 ( 20554 PWs)   bands (ev):

   -17.0619 -16.8094  -9.6522  -9.6515  -9.2662  -9.2654  -8.6761  -8.6727
    -7.8304  -7.8261  -6.7495  -6.7494  -6.6929  -6.6921  -6.3176  -6.3167
    -5.7465  -5.7431  -5.4748  -5.4739  -4.9324  -4.9286  -4.0071  -4.0058
    -3.9135  -3.9124  -2.8370  -2.8258  -2.7307  -2.7061  -2.2001  -2.0187
    -1.6779  -1.6327  -1.5035  -1.4842  -1.1158  -1.1077  -0.9925  -0.9898
    -0.9628  -0.9495  -0.7026  -0.7025  -0.4553  -0.4435  -0.2465  -0.2296
    -0.0064   0.0583   0.3365   0.3385   0.7075   0.7109   0.8708   0.8942
     1.0498   1.0605   1.3558

     occupation numbers 
     1.0000   1.0000   1.0000   1.0000   1.0000   1.0000   1.0000   1.0000
     1.0000   1.0000   1.0000   1.0000   1.0000   1.0000   1.0000   1.0000
     1.0000   1.0000   1.0000   1.0000   1.0000   1.0000   1.0000   1.0000
     1.0000   1.0000   1.0000   1.0000   1.0000   1.0000   1.0000   1.0000
     1.0000   1.0000   1.0000   1.0000   1.0000   1.0000   1.0000   1.0000
     1.0000   1.0000   1.0000   1.0000   1.0082   1.0099   1.0110   0.9924
     0.2144   0.0394  -0.0046  -0.0044  -0.0000  -0.0000  -0.0000  -0.0000
    -0.0000  -0.0000  -0.0000

          k =-0.5000-0.5774 0.0000 ( 20556 PWs)   bands (ev):

   -17.0601 -16.8075  -8.5367  -8.5366  -8.5335  -8.5320  -8.1565  -8.1560
    -8.1492  -8.1481  -7.5746  -7.5720  -7.5639  -7.5596  -6.7406  -6.7372
    -6.7262  -6.7209  -5.6773  -5.6761  -5.6596  -5.6585  -4.4327  -4.4302
    -4.4190  -4.4141  -3.1014  -3.0791  -3.0449  -3.0408  -2.2880  -2.1107
    -1.9781  -1.9663  -1.6053  -1.4909  -1.1064  -1.0477  -0.8021  -0.7873
    -0.0494  -0.0457   0.0278   0.0343   0.3964   0.4108   0.4516   0.5312
     0.9200   0.9233   1.0176   1.0862   1.1894   1.2117   1.2223   1.2682
     1.9137   1.9319   1.9410

     occupation numbers 
     1.0000   1.0000   1.0000   1.0000   1.0000   1.0000   1.0000   1.0000
     1.0000   1.0000   1.0000   1.0000   1.0000   1.0000   1.0000   1.0000
     1.0000   1.0000   1.0000   1.0000   1.0000   1.0000   1.0000   1.0000
     1.0000   1.0000   1.0000   1.0000   1.0000   1.0000   1.0000   1.0000
     1.0000   1.0000   1.0000   1.0000   1.0000   1.0000   1.0000   1.0000
     0.3854   0.3697   0.1076   0.0908  -0.0013  -0.0009  -0.0003  -0.0000
    -0.0000  -0.0000  -0.0000  -0.0000  -0.0000  -0.0000  -0.0000  -0.0000
    -0.0000  -0.0000  -0.0000

          k =-0.2500 0.2887 0.0000 ( 20544 PWs)   bands (ev):

   -17.0708 -16.8004 -10.4956 -10.1067  -9.5106  -8.6580  -8.2568  -7.8755
    -7.5697  -7.5184  -7.2922  -7.1397  -6.5614  -6.4585  -6.2796  -5.7355
    -5.4004  -5.3285  -4.9607  -4.7764  -4.6922  -4.4056  -4.1700  -3.8993
    -3.6373  -3.5283  -3.4936  -3.3624  -3.0209  -2.8984  -2.7394  -2.5202
    -2.2724  -2.1116  -1.9451  -1.8993  -1.7781  -1.6482  -1.5601  -1.4920
    -1.2606  -1.1390  -1.0531  -0.8919  -0.8082  -0.6943  -0.6076  -0.3900
    -0.0105   0.1064   0.1771   0.2034   0.2624   0.4635   0.7100   0.8083
     0.9193   1.0975   1.1979

     occupation numbers 
     1.0000   1.0000   1.0000   1.0000   1.0000   1.0000   1.0000   1.0000
     1.0000   1.0000   1.0000   1.0000   1.0000   1.0000   1.0000   1.0000
     1.0000   1.0000   1.0000   1.0000   1.0000   1.0000   1.0000   1.0000
     1.0000   1.0000   1.0000   1.0000   1.0000   1.0000   1.0000   1.0000
     1.0000   1.0000   1.0000   1.0000   1.0000   1.0000   1.0000   1.0000
     1.0000   1.0000   1.0000   1.0000   1.0000   1.0000   1.0003   1.0207
     0.2290  -0.0197  -0.0341  -0.0292  -0.0155  -0.0002  -0.0000  -0.0000
    -0.0000  -0.0000  -0.0000

 ------ SPIN DOWN ----------


          k = 0.0000 0.0000 0.0000 ( 20545 PWs)   bands (ev):

   -15.7646 -15.5878 -11.1327 -10.7393 -10.1389  -9.2800  -8.1829  -6.8854
    -6.6712  -6.6689  -6.2953  -6.2901  -5.7237  -5.7146  -5.3621  -5.2215
    -5.2136  -4.9072  -4.8948  -4.8808  -4.8141  -4.3145  -4.2639  -3.8755
    -3.8650  -3.8609  -3.5478  -3.4906  -2.7270  -2.7109  -2.6273  -2.1949
    -2.0900  -1.6033  -1.5759  -1.4207  -1.1097  -1.0033  -0.9886  -0.9880
    -0.9656  -0.8840  -0.8820  -0.7690  -0.6823  -0.5808  -0.5426  -0.5092
    -0.4335  -0.2490  -0.1820   0.0252   0.1252   0.2442   0.4223   0.4603
     0.5881   0.7177   0.7733

     occupation numbers 
     1.0000   1.0000   1.0000   1.0000   1.0000   1.0000   1.0000   1.0000
     1.0000   1.0000   1.0000   1.0000   1.0000   1.0000   1.0000   1.0000
     1.0000   1.0000   1.0000   1.0000   1.0000   1.0000   1.0000   1.0000
     1.0000   1.0000   1.0000   1.0000   1.0000   1.0000   1.0000   1.0000
     1.0000   1.0000   1.0000   1.0000   1.0000   1.0000   1.0000   1.0000
     1.0000   1.0000   1.0000   1.0002   1.0017   1.0114   1.0193   1.0273
     1.0331   0.6182   0.3261  -0.0347  -0.0136  -0.0015  -0.0000  -0.0000
    -0.0000  -0.0000  -0.0000

          k = 0.0000 0.2887 0.0000 ( 20546 PWs)   bands (ev):

   -15.7544 -15.5930 -10.7553 -10.3634  -9.7652  -8.9093  -7.8160  -7.7724
    -7.3910  -6.8104  -6.5232  -6.3060  -6.3039  -5.9797  -5.9315  -5.9270
    -5.3629  -5.3557  -5.0051  -4.9244  -4.5538  -4.5453  -3.7033  -3.5743
    -3.5742  -3.5324  -3.3923  -3.3875  -3.0695  -3.0643  -2.6807  -2.6610
    -2.4183  -2.2826  -2.2607  -2.0059  -1.8320  -1.6707  -1.6689  -1.5992
    -1.2791  -1.1499  -1.0985  -0.9155  -0.8088  -0.5621  -0.5207  -0.2853
    -0.2227  -0.1550  -0.0041   0.0339   0.1703   0.6334   0.8182   0.9067
     0.9859   1.0650   1.1550

     occupation numbers 
     1.0000   1.0000   1.0000   1.0000   1.0000   1.0000   1.0000   1.0000
     1.0000   1.0000   1.0000   1.0000   1.0000   1.0000   1.0000   1.0000
     1.0000   1.0000   1.0000   1.0000   1.0000   1.0000   1.0000   1.0000
     1.0000   1.0000   1.0000   1.0000   1.0000   1.0000   1.0000   1.0000
     1.0000   1.0000   1.0000   1.0000   1.0000   1.0000   1.0000   1.0000
     1.0000   1.0000   1.0000   1.0000   1.0001   1.0150   1.0245   0.7643
     0.5029   0.2216  -0.0343  -0.0336  -0.0066  -0.0000  -0.0000  -0.0000
    -0.0000  -0.0000  -0.0000

          k = 0.0000-0.5774 0.0000 ( 20588 PWs)   bands (ev):

   -15.7434 -15.5992  -9.6325  -9.6262  -9.2421  -9.2409  -8.6513  -8.6482
    -7.8051  -7.8001  -6.7264  -6.7156  -5.4504  -5.4398  -5.2252  -5.2185
    -5.2154  -5.2117  -4.8834  -4.8759  -4.8172  -4.8127  -4.3203  -4.3121
    -4.2678  -4.2570  -3.9566  -3.9506  -3.5532  -3.5409  -3.5065  -3.4783
    -2.6944  -2.6336  -2.5820  -2.5594  -2.1840  -2.1513  -1.4465  -1.4042
    -1.2595  -1.0831  -1.0561  -1.0210  -0.5602  -0.5278  -0.5244  -0.0963
     0.0328   0.1267   0.6887   0.7156   0.7625   0.8455   1.3822   1.4766
     1.9884   2.0042   2.0996

     occupation numbers 
     1.0000   1.0000   1.0000   1.0000   1.0000   1.0000   1.0000   1.0000
     1.0000   1.0000   1.0000   1.0000   1.0000   1.0000   1.0000   1.0000
     1.0000   1.0000   1.0000   1.0000   1.0000   1.0000   1.0000   1.0000
     1.0000   1.0000   1.0000   1.0000   1.0000   1.0000   1.0000   1.0000
     1.0000   1.0000   1.0000   1.0000   1.0000   1.0000   1.0000   1.0000
     1.0000   1.0000   1.0000   1.0000   1.0154   1.0228   1.0237   0.0548
    -0.0338  -0.0133  -0.0000  -0.0000  -0.0000  -0.0000  -0.0000  -0.0000
    -0.0000  -0.0000  -0.0000

          k = 0.2500 0.0000 0.0000 ( 20445 PWs)   bands (ev):

   -15.7386 -15.6136 -10.8496 -10.4572  -9.8584  -9.0017  -8.6050  -8.2205
    -7.9072  -7.6344  -6.7955  -6.6131  -5.7257  -5.0928  -4.9506  -4.9426
    -4.6129  -4.5433  -4.4694  -4.2256  -4.0505  -3.9935  -3.8622  -3.6124
    -3.3241  -3.2840  -3.2320  -3.0232  -2.8170  -2.8063  -2.5939  -2.4563
    -2.4180  -2.4031  -2.0009  -1.9648  -1.9050  -1.8352  -1.7477  -1.7328
    -1.3338  -1.2801  -1.1435  -0.9999  -0.7117  -0.6685  -0.5203  -0.3760
    -0.3594  -0.2297   0.0999   0.4917   0.5046   0.6332   0.7437   0.9011
     0.9899   1.3050   1.5473

     occupation numbers 
     1.0000   1.0000   1.0000   1.0000   1.0000   1.0000   1.0000   1.0000
     1.0000   1.0000   1.0000   1.0000   1.0000   1.0000   1.0000   1.0000
     1.0000   1.0000   1.0000   1.0000   1.0000   1.0000   1.0000   1.0000
     1.0000   1.0000   1.0000   1.0000   1.0000   1.0000   1.0000   1.0000
     1.0000   1.0000   1.0000   1.0000   1.0000   1.0000   1.0000   1.0000
     1.0000   1.0000   1.0000   1.0000   1.0008   1.0023   1.0246   0.9921
     0.9669   0.5337  -0.0190  -0.0000  -0.0000  -0.0000  -0.0000  -0.0000
    -0.0000  -0.0000  -0.0000

          k = 0.2500 0.2887 0.0000 ( 20544 PWs)   bands (ev):

   -15.7307 -15.6166 -10.4730 -10.0821  -9.4855  -8.6317  -8.2343  -7.8512
    -7.5411  -7.4960  -7.2675  -7.1156  -6.5368  -6.4319  -6.2520  -5.7088
    -5.3682  -5.3060  -4.9356  -4.7382  -4.6587  -4.3778  -4.1242  -3.8755
    -3.5995  -3.4894  -3.4464  -3.2860  -2.9719  -2.7307  -2.6700  -2.2052
    -2.1329  -1.7476  -1.6211  -1.5721  -1.4985  -1.3911  -1.1426  -1.1068
    -1.0158  -0.7655  -0.6575  -0.6096  -0.5093  -0.3843  -0.2764  -0.0691
     0.0761   0.2094   0.2698   0.3293   0.3743   0.5124   0.7719   0.8697
     1.0404   1.1767   1.2924

     occupation numbers 
     1.0000   1.0000   1.0000   1.0000   1.0000   1.0000   1.0000   1.0000
     1.0000   1.0000   1.0000   1.0000   1.0000   1.0000   1.0000   1.0000
     1.0000   1.0000   1.0000   1.0000   1.0000   1.0000   1.0000   1.0000
     1.0000   1.0000   1.0000   1.0000   1.0000   1.0000   1.0000   1.0000
     1.0000   1.0000   1.0000   1.0000   1.0000   1.0000   1.0000   1.0000
     1.0000   1.0002   1.0029   1.0071   1.0273   1.0021   0.7307   0.0092
    -0.0247  -0.0031  -0.0008  -0.0002  -0.0000  -0.0000  -0.0000  -0.0000
    -0.0000  -0.0000  -0.0000

          k = 0.2500-0.5774 0.0000 ( 20558 PWs)   bands (ev):

   -15.7221 -15.6200  -9.3525  -9.3461  -8.9630  -8.9616  -8.3735  -8.3710
    -7.5293  -7.5253  -7.1319  -7.1249  -6.7513  -6.7476  -6.4535  -6.4445
    -6.1744  -6.1715  -5.3536  -5.3471  -5.1815  -5.1741  -4.3172  -4.3060
    -3.6981  -3.6963  -3.1716  -3.1384  -2.7777  -2.7721  -2.5251  -2.5068
    -2.3567  -2.3350  -2.0639  -1.9965  -1.5897  -1.5564  -1.1525  -1.0390
    -0.9342  -0.8830  -0.6650  -0.5848  -0.5176  -0.2056   0.0939   0.1676
     0.2772   0.3184   0.5691   0.6531   1.3834   1.4431   1.6081   1.7178
     2.0744   2.2085   2.3254

     occupation numbers 
     1.0000   1.0000   1.0000   1.0000   1.0000   1.0000   1.0000   1.0000
     1.0000   1.0000   1.0000   1.0000   1.0000   1.0000   1.0000   1.0000
     1.0000   1.0000   1.0000   1.0000   1.0000   1.0000   1.0000   1.0000
     1.0000   1.0000   1.0000   1.0000   1.0000   1.0000   1.0000   1.0000
     1.0000   1.0000   1.0000   1.0000   1.0000   1.0000   1.0000   1.0000
     1.0000   1.0000   1.0024   1.0108   1.0253   0.4273  -0.0204  -0.0069
    -0.0007  -0.0002  -0.0000  -0.0000  -0.0000  -0.0000  -0.0000  -0.0000
    -0.0000  -0.0000  -0.0000

          k =-0.5000 0.0000 0.0000 ( 20498 PWs)   bands (ev):

   -15.6779 -15.6747 -10.0044 -10.0029  -9.6151  -9.6136  -9.0211  -9.0196
    -8.1717  -8.1683  -7.0858  -7.0820  -5.8025  -5.7996  -4.2967  -4.2954
    -4.1428  -4.1404  -4.1340  -4.1333  -3.8132  -3.8116  -3.7367  -3.7365
    -3.2654  -3.2639  -3.1927  -3.1913  -2.8780  -2.8776  -2.5089  -2.5006
    -2.4765  -2.4682  -1.7512  -1.7099  -1.4459  -1.4335  -1.3024  -1.2961
    -1.1902  -1.0762  -1.0204  -0.9980  -0.9325  -0.7772  -0.7065  -0.6643
    -0.4864  -0.3773  -0.0625   0.0016   0.0996   0.1353   0.3604   0.4899
     0.9320   1.0290   1.3314

     occupation numbers 
     1.0000   1.0000   1.0000   1.0000   1.0000   1.0000   1.0000   1.0000
     1.0000   1.0000   1.0000   1.0000   1.0000   1.0000   1.0000   1.0000
     1.0000   1.0000   1.0000   1.0000   1.0000   1.0000   1.0000   1.0000
     1.0000   1.0000   1.0000   1.0000   1.0000   1.0000   1.0000   1.0000
     1.0000   1.0000   1.0000   1.0000   1.0000   1.0000   1.0000   1.0000
     1.0000   1.0000   1.0000   1.0000   1.0000   1.0001   1.0010   1.0025
     1.0322   0.9937   0.0009  -0.0350  -0.0191  -0.0117  -0.0001  -0.0000
    -0.0000  -0.0000  -0.0000

          k =-0.5000 0.2887 0.0000 ( 20554 PWs)   bands (ev):

   -15.6752 -15.6720  -9.6301  -9.6286  -9.2421  -9.2406  -8.6503  -8.6488
    -7.8040  -7.8006  -6.7223  -6.7187  -6.6708  -6.6692  -6.2936  -6.2921
    -5.7204  -5.7190  -5.4453  -5.4426  -4.9032  -4.9001  -3.9518  -3.9509
    -3.8720  -3.8699  -2.7116  -2.7079  -2.5666  -2.5649  -1.6049  -1.5895
    -1.1536  -1.1148  -1.0005  -0.9944  -0.9749  -0.9638  -0.8776  -0.8356
    -0.6916  -0.6459  -0.5526  -0.4853  -0.3714  -0.2923   0.0372   0.0521
     0.1146   0.1594   0.3971   0.3979   0.7480   0.7543   0.9457   0.9726
     1.1174   1.1292   1.4365

     occupation numbers 
     1.0000   1.0000   1.0000   1.0000   1.0000   1.0000   1.0000   1.0000
     1.0000   1.0000   1.0000   1.0000   1.0000   1.0000   1.0000   1.0000
     1.0000   1.0000   1.0000   1.0000   1.0000   1.0000   1.0000   1.0000
     1.0000   1.0000   1.0000   1.0000   1.0000   1.0000   1.0000   1.0000
     1.0000   1.0000   1.0000   1.0000   1.0000   1.0000   1.0000   1.0000
     1.0014   1.0036   1.0170   1.0324   0.9858   0.7898  -0.0331  -0.0303
    -0.0157  -0.0079  -0.0000  -0.0000  -0.0000  -0.0000  -0.0000  -0.0000
    -0.0000  -0.0000  -0.0000

          k =-0.5000-0.5774 0.0000 ( 20556 PWs)   bands (ev):

   -15.6725 -15.6693  -8.5166  -8.5148  -8.5095  -8.5082  -8.1310  -8.1282
    -8.1269  -8.1268  -7.5472  -7.5457  -7.5403  -7.5387  -6.7121  -6.7094
    -6.7015  -6.6975  -5.6474  -5.6436  -5.6310  -5.6278  -4.3950  -4.3914
    -4.3779  -4.3776  -2.9702  -2.9697  -2.9421  -2.9387  -1.7519  -1.7431
    -1.6905  -1.6849  -0.7378  -0.7155  -0.5121  -0.4758  -0.3666  -0.2875
     0.0113   0.0231   0.0987   0.1089   0.4544   0.4906   0.5260   0.6101
     0.9994   1.0101   1.0923   1.2075   1.2194   1.2546   1.2680   1.3384
     1.9461   1.9678   1.9781

     occupation numbers 
     1.0000   1.0000   1.0000   1.0000   1.0000   1.0000   1.0000   1.0000
     1.0000   1.0000   1.0000   1.0000   1.0000   1.0000   1.0000   1.0000
     1.0000   1.0000   1.0000   1.0000   1.0000   1.0000   1.0000   1.0000
     1.0000   1.0000   1.0000   1.0000   1.0000   1.0000   1.0000   1.0000
     1.0000   1.0000   1.0004   1.0008   1.0266   1.0339   0.9787   0.7726
    -0.0355  -0.0349  -0.0192  -0.0169  -0.0000  -0.0000  -0.0000  -0.0000
    -0.0000  -0.0000  -0.0000  -0.0000  -0.0000  -0.0000  -0.0000  -0.0000
    -0.0000  -0.0000  -0.0000

          k =-0.2500 0.2887 0.0000 ( 20544 PWs)   bands (ev):

   -15.7307 -15.6166 -10.4730 -10.0821  -9.4855  -8.6317  -8.2343  -7.8512
    -7.5411  -7.4960  -7.2675  -7.1156  -6.5368  -6.4319  -6.2520  -5.7088
    -5.3682  -5.3060  -4.9356  -4.7383  -4.6587  -4.3778  -4.1242  -3.8755
    -3.5995  -3.4894  -3.4464  -3.2860  -2.9719  -2.7307  -2.6700  -2.2052
    -2.1329  -1.7476  -1.6212  -1.5721  -1.4985  -1.3909  -1.1427  -1.1068
    -1.0159  -0.7654  -0.6574  -0.6099  -0.5092  -0.3842  -0.2759  -0.0694
     0.0761   0.2093   0.2697   0.3292   0.3744   0.5124   0.7717   0.8699
     1.0403   1.1766   1.2925

     occupation numbers 
     1.0000   1.0000   1.0000   1.0000   1.0000   1.0000   1.0000   1.0000
     1.0000   1.0000   1.0000   1.0000   1.0000   1.0000   1.0000   1.0000
     1.0000   1.0000   1.0000   1.0000   1.0000   1.0000   1.0000   1.0000
     1.0000   1.0000   1.0000   1.0000   1.0000   1.0000   1.0000   1.0000
     1.0000   1.0000   1.0000   1.0000   1.0000   1.0000   1.0000   1.0000
     1.0000   1.0002   1.0029   1.0071   1.0273   1.0020   0.7289   0.0095
    -0.0247  -0.0031  -0.0008  -0.0002  -0.0000  -0.0000  -0.0000  -0.0000
    -0.0000  -0.0000  -0.0000

     the spin up/dw Fermi energies are    -0.0755   -0.2221 ev

!    total energy              =   -1188.54349572 Ry
     total all-electron energy =    -13898.235121 Ry
     estimated scf accuracy    <       0.00000005 Ry
     smearing contrib. (-TS)   =       0.00075480 Ry
     internal energy E=F+TS    =   -1188.54425051 Ry

     The total energy is F=E-TS. E is the sum of the following terms:
     one-electron contribution =   -4141.74058443 Ry
     hartree contribution      =    2096.77009829 Ry
     xc contribution           =     -86.06110600 Ry
     ewald contribution        =    1932.62279476 Ry
     one-center paw contrib.   =    -990.13545313 Ry
      -> PAW hartree energy AE =       1.16248804 Ry
      -> PAW hartree energy PS =      -1.15826081 Ry
      -> PAW xc energy AE      =     -36.46291403 Ry
      -> PAW xc energy PS      =       1.78954616 Ry
      -> total E_H with PAW    =    2096.77432551 Ry
      -> total E_XC with PAW   =    -120.73447388 Ry

     total magnetization       =     2.00 Bohr mag/cell
     absolute magnetization    =     2.43 Bohr mag/cell

     convergence has been achieved in  45 iterations

     negative rho (up, down):  3.231E-02 2.340E-02

     Forces acting on atoms (cartesian axes, Ry/au):

     atom    1 type  1   force =     0.00000891    0.02390261    0.05394986
     atom    2 type  1   force =    -0.00001200   -0.02610673    0.05078059
     atom    3 type  1   force =     0.00206867    0.00081874    0.09271716
     atom    4 type  1   force =    -0.00206822    0.00083330    0.09257208
     atom    5 type  1   force =    -0.00200190    0.00116032   -0.00566169
     atom    6 type  1   force =     0.00000129    0.00135498   -0.00115693
     atom    7 type  1   force =     0.00000077   -0.00133486    0.00650487
     atom    8 type  1   force =     0.00000592   -0.00160465   -0.00636054
     atom    9 type  1   force =     0.00200933    0.00115951   -0.00567941
     atom   10 type  1   force =     0.00082341   -0.00005899   -0.00450676
     atom   11 type  1   force =     0.00094938   -0.00045763   -0.00222427
     atom   12 type  1   force =    -0.00000247    0.00033682    0.00649059
     atom   13 type  1   force =    -0.00000313   -0.00151578    0.00287884
     atom   14 type  1   force =    -0.00041928    0.00114862    0.00427968
     atom   15 type  1   force =     0.00041845    0.00114788    0.00427916
     atom   16 type  1   force =    -0.00055297   -0.00039995    0.00654097
     atom   17 type  1   force =    -0.00023020   -0.00050007    0.00054498
     atom   18 type  1   force =    -0.00000238    0.00014843    0.00068856
     atom   19 type  1   force =     0.00000127    0.00027970   -0.00196976
     atom   20 type  1   force =     0.00000003   -0.00106313   -0.00452909
     atom   21 type  1   force =     0.00000244    0.00073613    0.00122681
     atom   22 type  1   force =    -0.00000072   -0.00045652   -0.00226053
     atom   23 type  1   force =     0.00000309    0.00018516    0.00694007
     atom   24 type  1   force =    -0.00000137    0.00006847   -0.00576981
     atom   25 type  1   force =     0.00023165   -0.00050003    0.00054212
     atom   26 type  1   force =    -0.00094792   -0.00045829   -0.00222471
     atom   27 type  1   force =     0.00055505   -0.00039875    0.00653922
     atom   28 type  1   force =    -0.00082317   -0.00005829   -0.00450799
     atom   29 type  2   force =     0.00005747   -0.00207411   -0.15336268
     atom   30 type  2   force =    -0.00007141    0.00370709   -0.13726137
     The non-local contrib.  to forces
     atom    1 type  1   force =     0.00002078    0.03144603    0.08666517
     atom    2 type  1   force =    -0.00003020   -0.02742195    0.08734113
     atom    3 type  1   force =    -0.00229364   -0.00067078    0.11521481
     atom    4 type  1   force =     0.00229757   -0.00066725    0.11521581
     atom    5 type  1   force =    -0.00267551    0.00304386    0.00629674
     atom    6 type  1   force =     0.00000545    0.00251896    0.00174687
     atom    7 type  1   force =    -0.00000339    0.00106767    0.00377509
     atom    8 type  1   force =     0.00000745   -0.00019765    0.00426126
     atom    9 type  1   force =     0.00268470    0.00306325    0.00627244
     atom   10 type  1   force =    -0.00086148   -0.00223260    0.00097046
     atom   11 type  1   force =    -0.00037810    0.00003643   -0.02482532
     atom   12 type  1   force =     0.00000268   -0.00026947    0.00356136
     atom   13 type  1   force =     0.00000389   -0.00011565   -0.00104743
     atom   14 type  1   force =    -0.00107180    0.00022012    0.00136281
     atom   15 type  1   force =     0.00107028    0.00021639    0.00136762
     atom   16 type  1   force =     0.00086602   -0.00032952    0.00111080
     atom   17 type  1   force =    -0.00043799    0.00128160    0.00342405
     atom   18 type  1   force =    -0.00000094    0.00064644    0.00349842
     atom   19 type  1   force =     0.00000224   -0.00039071   -0.02788406
     atom   20 type  1   force =    -0.00000249   -0.00007665    0.00336765
     atom   21 type  1   force =    -0.00000039    0.00133730    0.00237600
[...]
     atom   10 type  1   force =    -0.00018817   -0.00185661    0.00155898
     atom   11 type  1   force =     0.00002955   -0.00018337   -0.02662576
     atom   12 type  1   force =     0.00000391    0.00119371    0.00150612
     atom   13 type  1   force =    -0.00004489   -0.00113446   -0.00582896
     atom   14 type  1   force =     0.00028142    0.00413853   -0.00480010
     atom   15 type  1   force =    -0.00030598    0.00411359   -0.00479660
     atom   16 type  1   force =     0.00010838   -0.00046926    0.00353273
     atom   17 type  1   force =     0.00016381    0.00211733    0.00614325
     atom   18 type  1   force =     0.00000150    0.00224203    0.00533362
     atom   19 type  1   force =    -0.00000656    0.00051300   -0.02376615
     atom   20 type  1   force =    -0.00000539   -0.00221500    0.00090321
     atom   21 type  1   force =     0.00002092    0.00177098    0.00521813
     atom   22 type  1   force =     0.00000265    0.00001257   -0.02349814
     atom   23 type  1   force =    -0.00001100    0.00116149    0.00098775
     atom   24 type  1   force =     0.00001097   -0.00286778    0.00015871
     atom   25 type  1   force =    -0.00015230    0.00210826    0.00614419
     atom   26 type  1   force =    -0.00001406   -0.00018697   -0.02661497
     atom   27 type  1   force =    -0.00010239   -0.00046684    0.00350799
     atom   28 type  1   force =     0.00018027   -0.00185269    0.00155252
     atom   29 type  2   force =     0.00052684   -0.04230592   -1.06124344
     atom   30 type  2   force =     0.00064569    0.03248346   -1.06114631
     The ionic contribution  to forces
     atom    1 type  1   force =    -0.00447295   -0.09558806   11.02744543
     atom    2 type  1   force =     0.00695829    0.07587108   11.02459932
     atom    3 type  1   force =    -0.00550857    0.00177687   12.46451981
     atom    4 type  1   force =     0.00489802    0.00240010   12.46763063
     atom    5 type  1   force =     0.00137018    0.02324711    7.14497464
     atom    6 type  1   force =     0.00048440   -0.02447992    7.14092408
     atom    7 type  1   force =     0.00004737   -0.01552860    2.32661958
     atom    8 type  1   force =    -0.00049261   -0.01847630    7.16254981
     atom    9 type  1   force =    -0.00151203    0.02306118    7.14590780
     atom   10 type  1   force =    -0.00014585   -0.00004975   -7.22960384
     atom   11 type  1   force =     0.00000736    0.00000031  -16.76460121
     atom   12 type  1   force =     0.00000623   -0.00000649  -12.01467423
     atom   13 type  1   force =    -0.00009975   -0.01403720    2.31481891
     atom   14 type  1   force =     0.00263404    0.01413455    2.31602402
     atom   15 type  1   force =    -0.00267333    0.01405579    2.31588722
     atom   16 type  1   force =    -0.00001586    0.00000640  -12.01468573
     atom   17 type  1   force =     0.00184151   -0.00047819   -2.44786231
     atom   18 type  1   force =     0.00002333    0.00299820   -2.44275639
     atom   19 type  1   force =     0.00000543    0.00000003  -16.76459743
     atom   20 type  1   force =    -0.00000901    0.00006619   -7.22994621
     atom   21 type  1   force =     0.00000120    0.00161478   -2.44531954
     atom   22 type  1   force =    -0.00000659    0.00000069  -16.76460142
     atom   23 type  1   force =    -0.00000777   -0.00000636  -12.01469524
     atom   24 type  1   force =     0.00000753    0.00004261   -7.22971594
     atom   25 type  1   force =    -0.00181788   -0.00048386   -2.44780071
     atom   26 type  1   force =    -0.00000620   -0.00000036  -16.76459873
     atom   27 type  1   force =     0.00001740    0.00000639  -12.01468607
     atom   28 type  1   force =     0.00014745   -0.00005028   -7.22960611
     atom   29 type  2   force =    -0.02533203    0.29878514   34.48160681
     atom   30 type  2   force =     0.02365069   -0.28888201   34.48624307
     The local contribution  to forces
     atom    1 type  1   force =     0.00439350    0.10084473  -10.93698602
     atom    2 type  1   force =    -0.00729406   -0.08141673  -10.93415564
     atom    3 type  1   force =     0.00724321   -0.00149891  -12.51393799
     atom    4 type  1   force =    -0.00663800   -0.00207715  -12.51691372
     atom    5 type  1   force =    -0.00142537   -0.02133177   -7.15647017
     atom    6 type  1   force =    -0.00050215    0.02020424   -7.14893172
     atom    7 type  1   force =    -0.00004385    0.01698949   -2.32136846
     atom    8 type  1   force =     0.00053297    0.01398158   -7.17185722
     atom    9 type  1   force =     0.00159986   -0.02112818   -7.15745230
     atom   10 type  1   force =     0.00057537    0.00111628    7.22256930
     atom   11 type  1   force =    -0.00001543    0.00014926   16.78571667
     atom   12 type  1   force =    -0.00001538   -0.00208844   12.01967102
     atom   13 type  1   force =     0.00012346    0.01569142   -2.30936412
     atom   14 type  1   force =    -0.00299311   -0.01831183   -2.31156385
     atom   15 type  1   force =     0.00302412   -0.01820661   -2.31142873
     atom   16 type  1   force =    -0.00018580    0.00133646   12.01880428
     atom   17 type  1   force =    -0.00178927    0.00009664    2.44559646
     atom   18 type  1   force =    -0.00000760   -0.00516390    2.43941431
     atom   19 type  1   force =     0.00000929   -0.00094310   16.78326130
     atom   20 type  1   force =     0.00001315    0.00177430    7.22456495
     atom   21 type  1   force =    -0.00003064   -0.00381674    2.44200613
     atom   22 type  1   force =    -0.00000537   -0.00054491   16.78317829
     atom   23 type  1   force =     0.00001960   -0.00213344   12.02002090
     atom   24 type  1   force =    -0.00002173    0.00250972    7.22454839
     atom   25 type  1   force =     0.00176786    0.00011240    2.44550310
     atom   26 type  1   force =     0.00000130    0.00014579   16.78569807
     atom   27 type  1   force =     0.00018378    0.00134119   12.01881674
     atom   28 type  1   force =    -0.00056673    0.00110141    7.22257332
     atom   29 type  2   force =     0.02486776   -0.25762016  -33.56474593
     atom   30 type  2   force =    -0.02434694    0.25734670  -33.56816904
     The core correction contribution to forces
     atom    1 type  1   force =    -0.00000628    0.00083520   -0.00207500
     atom    2 type  1   force =    -0.00004526   -0.00088482   -0.00199931
     atom    3 type  1   force =     0.00019859    0.00013393   -0.00710068
     atom    4 type  1   force =    -0.00019798    0.00013582   -0.00706803
     atom    5 type  1   force =     0.00001617    0.00014508   -0.00135312
     atom    6 type  1   force =    -0.00000068   -0.00049856   -0.00108180
     atom    7 type  1   force =     0.00000120    0.00021680    0.00074584
     atom    8 type  1   force =     0.00000690   -0.00056268   -0.00119169
     atom    9 type  1   force =    -0.00000808    0.00014753   -0.00135946
     atom   10 type  1   force =     0.00001914    0.00019090   -0.00016722
     atom   11 type  1   force =    -0.00000277    0.00001818    0.00327969
     atom   12 type  1   force =    -0.00000041   -0.00012446   -0.00010595
     atom   13 type  1   force =     0.00000522    0.00017899    0.00070380
     atom   14 type  1   force =    -0.00003648   -0.00048044    0.00063919
     atom   15 type  1   force =     0.00003920   -0.00047733    0.00063887
     atom   16 type  1   force =    -0.00001068    0.00005239   -0.00030794
     atom   17 type  1   force =    -0.00002204   -0.00021312   -0.00064969
     atom   18 type  1   force =    -0.00000025   -0.00023932   -0.00058678
     atom   19 type  1   force =     0.00000081   -0.00005080    0.00297976
     atom   20 type  1   force =     0.00000050    0.00022105   -0.00009467
     atom   21 type  1   force =    -0.00000224   -0.00018682   -0.00056634
     atom   22 type  1   force =    -0.00000041   -0.00000235    0.00295542
     atom   23 type  1   force =     0.00000118   -0.00012179   -0.00005651
     atom   24 type  1   force =    -0.00000112    0.00028667   -0.00002192
     atom   25 type  1   force =     0.00002074   -0.00021215   -0.00064997
     atom   26 type  1   force =     0.00000132    0.00001859    0.00327838
     atom   27 type  1   force =     0.00000998    0.00005223   -0.00030548
     atom   28 type  1   force =    -0.00001845    0.00019038   -0.00016653
     atom   29 type  2   force =    -0.00007333    0.00081801    0.00687283
     atom   30 type  2   force =    -0.00008568   -0.00060619    0.00682768
     The Hubbard contrib.    to forces
     atom    1 type  1   force =     0.00000000    0.00000000    0.00000000
     atom    2 type  1   force =     0.00000000    0.00000000    0.00000000
     atom    3 type  1   force =     0.00000000    0.00000000    0.00000000
     atom    4 type  1   force =     0.00000000    0.00000000    0.00000000
     atom    5 type  1   force =     0.00000000    0.00000000    0.00000000
     atom    6 type  1   force =     0.00000000    0.00000000    0.00000000
     atom    7 type  1   force =     0.00000000    0.00000000    0.00000000
     atom    8 type  1   force =     0.00000000    0.00000000    0.00000000
     atom    9 type  1   force =     0.00000000    0.00000000    0.00000000
     atom   10 type  1   force =     0.00000000    0.00000000    0.00000000
     atom   11 type  1   force =     0.00000000    0.00000000    0.00000000
     atom   12 type  1   force =     0.00000000    0.00000000    0.00000000
     atom   13 type  1   force =     0.00000000    0.00000000    0.00000000
     atom   14 type  1   force =     0.00000000    0.00000000    0.00000000
     atom   15 type  1   force =     0.00000000    0.00000000    0.00000000
     atom   16 type  1   force =     0.00000000    0.00000000    0.00000000
     atom   17 type  1   force =     0.00000000    0.00000000    0.00000000
     atom   18 type  1   force =     0.00000000    0.00000000    0.00000000
     atom   19 type  1   force =     0.00000000    0.00000000    0.00000000
     atom   20 type  1   force =     0.00000000    0.00000000    0.00000000
     atom   21 type  1   force =     0.00000000    0.00000000    0.00000000
     atom   22 type  1   force =     0.00000000    0.00000000    0.00000000
     atom   23 type  1   force =     0.00000000    0.00000000    0.00000000
     atom   24 type  1   force =     0.00000000    0.00000000    0.00000000
     atom   25 type  1   force =     0.00000000    0.00000000    0.00000000
     atom   26 type  1   force =     0.00000000    0.00000000    0.00000000
     atom   27 type  1   force =     0.00000000    0.00000000    0.00000000
     atom   28 type  1   force =     0.00000000    0.00000000    0.00000000
     atom   29 type  2   force =     0.00000000    0.00000000    0.00000000
     atom   30 type  2   force =     0.00000000    0.00000000    0.00000000
     The SCF correction term to forces
     atom    1 type  1   force =     0.00000017    0.00000182   -0.00000000
     atom    2 type  1   force =    -0.00000015    0.00000202   -0.00000000
     atom    3 type  1   force =    -0.00000002   -0.00000198   -0.00000000
     atom    4 type  1   force =     0.00000001   -0.00000202   -0.00000000
     atom    5 type  1   force =    -0.00000388    0.00000114   -0.00003103
     atom    6 type  1   force =    -0.00000001   -0.00000104   -0.00003067
     atom    7 type  1   force =    -0.00000002   -0.00000040   -0.00000845
     atom    8 type  1   force =     0.00000001   -0.00000126   -0.00003219
     atom    9 type  1   force =     0.00000388    0.00000113   -0.00003116
     atom   10 type  1   force =    -0.00000000   -0.00000000    0.00000000
     atom   11 type  1   force =    -0.00000000    0.00000000    0.00000000
     atom   12 type  1   force =    -0.00000000    0.00000000    0.00000000
     atom   13 type  1   force =     0.00000002   -0.00000058   -0.00000926
     atom   14 type  1   force =     0.00000368    0.00000048   -0.00000975
     atom   15 type  1   force =    -0.00000368    0.00000044   -0.00000976
     atom   16 type  1   force =     0.00000000   -0.00000000    0.00000000
     atom   17 type  1   force =     0.00000000    0.00000000    0.00000000
     atom   18 type  1   force =    -0.00000000   -0.00000000    0.00000000
     atom   19 type  1   force =    -0.00000000   -0.00000000    0.00000000
     atom   20 type  1   force =     0.00000000    0.00000000    0.00000000
     atom   21 type  1   force =     0.00000000   -0.00000000    0.00000000
     atom   22 type  1   force =     0.00000000   -0.00000000    0.00000000
     atom   23 type  1   force =     0.00000000    0.00000000    0.00000000
     atom   24 type  1   force =    -0.00000000    0.00000000    0.00000000
     atom   25 type  1   force =    -0.00000000    0.00000000    0.00000000
     atom   26 type  1   force =     0.00000000    0.00000000    0.00000000
     atom   27 type  1   force =    -0.00000000   -0.00000000    0.00000000
     atom   28 type  1   force =     0.00000000   -0.00000000    0.00000000
     atom   29 type  2   force =    -0.00000005    0.00000591   -0.00000000
     atom   30 type  2   force =     0.00000069    0.00000111   -0.00000000

     Total force =     0.002451     Total SCF correction =     0.000066
     Energy error            =      1.2E-05 Ry
     Gradient error          =      9.3E-04 Ry/Bohr

     bfgs converged in  22 scf cycles and  21 bfgs steps
     (criteria: energy <  1.0E-04 Ry, force <  1.0E-03 Ry/Bohr)

     End of BFGS Geometry Optimization

     Final energy             =   -1188.6031947427 Ry

     File ./alo2.1.bfgs deleted, as requested
Begin final coordinates

ATOMIC_POSITIONS (angstrom)
Al              -0.0010719844        4.2027639898       25.4913400000    1   1   0
Al               2.8540465692        4.1544552732       25.4913400000    1   1   0
Al               1.4304104320        1.7095916888       25.4913400000    1   1   0
Al               4.2805208156        1.7095040675       25.4913400000    1   1   0
Al               7.1415253467        0.0358600548       23.1560057168
Al               2.8560068269        2.5059298165       23.1296785907
Al               5.7121129085        0.8514959343       20.8458750665
Al               5.7120909849        2.5070251116       23.1353823481
Al               4.2822654899        0.0358291050       23.1560006168
Al               7.1398900000        0.0000000000       16.1638300000    0   0   0
Al               4.2839300000        1.6488800000       11.5000800000    0   0   0
Al               5.7119100000        0.8244400000       13.8319600000    0   0   0
Al               2.8562780814        0.8488334080       20.8381976889
Al               4.2838978651        3.3160254486       20.8421757353
Al               1.4285735210        3.3161428535       20.8421675644
Al               1.4279800000        3.2977700000       13.8319600000    0   0   0
Al               4.2839300000        1.6488800000       18.4957100000    0   0   0
Al               0.0000000000        4.1222100000       18.4957100000    0   0   0
Al               0.0000000000        4.1222100000       11.5000800000    0   0   0
Al               2.8559600000        2.4733300000       16.1638300000    0   0   0
Al               2.8559600000        4.1222100000       18.4957100000    0   0   0
Al               2.8559600000        4.1222100000       11.5000800000    0   0   0
Al               2.8559600000        0.8244400000       13.8319600000    0   0   0
Al               5.7119100000        2.4733300000       16.1638300000    0   0   0
Al               1.4279800000        1.6488800000       18.4957100000    0   0   0
Al               1.4279800000        1.6488800000       11.5000800000    0   0   0
Al               4.2839300000        3.2977700000       13.8319600000    0   0   0
Al               4.2839300000        0.0000000000       16.1638300000    0   0   0
O                5.7112744042       -0.6200628954       27.5913400000    1   1   0
O                2.8484039977        4.0476158579       27.5913400000    1   1   0
End final coordinates



     Writing all to output data dir ./alo2.1.save/ :
     XML data file, charge density, pseudopotentials, collected wavefunctions

     init_run     :     10.22s CPU     10.40s WALL (       1 calls)
     electrons    :  17083.43s CPU  17207.39s WALL (      45 calls)
     update_pot   :     23.80s CPU     25.23s WALL (      44 calls)
     forces       :    395.40s CPU    400.32s WALL (      45 calls)

     Called by init_run:
     wfcinit      :      6.94s CPU      7.02s WALL (       1 calls)
     wfcinit:atom :      0.01s CPU      0.01s WALL (       2 calls)
     wfcinit:wfcr :      6.84s CPU      6.90s WALL (       2 calls)
     potinit      :      0.44s CPU      0.49s WALL (       1 calls)
     hinit0       :      0.53s CPU      0.55s WALL (       1 calls)

     Called by electrons:
     c_bands      :  14495.49s CPU  14597.05s WALL (     886 calls)
     sum_band     :   1914.70s CPU   1928.66s WALL (     886 calls)
     v_of_rho     :    152.17s CPU    155.06s WALL (     915 calls)
     v_h          :      3.59s CPU      3.72s WALL (     915 calls)
     v_xc         :    156.08s CPU    159.42s WALL (     960 calls)
     newd         :    183.44s CPU    184.55s WALL (     915 calls)
     PAW_pot      :    353.34s CPU    355.77s WALL (     959 calls)
     mix_rho      :     18.65s CPU     19.57s WALL (     886 calls)

     Called by c_bands:
     init_us_2    :    197.92s CPU    200.39s WALL (    3724 calls)
     cegterg      :  13767.56s CPU  13863.36s WALL (    1773 calls)

     Called by sum_band:
     sum_band:wei :      1.43s CPU      1.45s WALL (     886 calls)
     sum_band:loo :   1754.87s CPU   1767.48s WALL (     886 calls)
     sum_band:buf :      6.36s CPU      6.53s WALL (    1772 calls)
     sum_band:ini :     80.24s CPU     81.14s WALL (    1772 calls)
     sum_band:cal :   1623.63s CPU   1634.18s WALL (    1860 calls)
     sum_band:bec :      1.70s CPU      1.73s WALL (    1860 calls)
     addusdens    :     62.86s CPU     63.41s WALL (     886 calls)
                                        0.00s GPU  (     886 calls)
     addusd:skk   :      0.63s CPU      0.64s WALL (    1772 calls)
                                        0.00s GPU  (    1772 calls)

     Called by *egterg:
     cdiaghg      :     58.59s CPU     59.03s WALL (    9630 calls)
     cegterg:over :    498.90s CPU    501.84s WALL (    7977 calls)
     cegterg:upda :    158.96s CPU    160.28s WALL (    7977 calls)
     cegterg:last :    383.11s CPU    385.84s WALL (    4091 calls)
     cdiaghg:chol :      2.35s CPU      2.39s WALL (    9630 calls)
     cdiaghg:inve :      0.31s CPU      0.31s WALL (    9630 calls)
     cdiaghg:para :     11.31s CPU     11.44s WALL (   19260 calls)
     h_psi        :   8702.44s CPU   8762.63s WALL (    9752 calls)
     s_psi        :   3833.39s CPU   3858.59s WALL (    9752 calls)
     g_psi        :      4.94s CPU      4.99s WALL (    7977 calls)

     Called by h_psi:
     h_psi:calbec :   4323.57s CPU   4351.12s WALL (    9752 calls)
     vloc_psi     :    492.20s CPU    498.22s WALL (    9752 calls)
     add_vuspsi   :   3875.45s CPU   3901.42s WALL (    9752 calls)

     General routines
     calbec       :   6282.58s CPU   6322.95s WALL (   11972 calls)
     fft          :     74.22s CPU     75.30s WALL (   20056 calls)
     ffts         :      4.19s CPU      4.29s WALL (    1772 calls)
     fftw         :    513.27s CPU    519.53s WALL (  667828 calls)

     Parallel routines

     PAW routines
     PAW_pot      :    353.34s CPU    355.77s WALL (     959 calls)

     PWSCF        :      4h53m CPU      4h55m WALL


   This run was terminated on:  16:44:23  19Nov2025            

=------------------------------------------------------------------------------=
   JOB DONE.
=------------------------------------------------------------------------------=
