
     Program PWSCF v.7.3.1 starts on  4Dec2025 at 20:22:47 

     This program is part of the open-source Quantum ESPRESSO suite
     for quantum simulation of materials; please cite
         "P. Giannozzi et al., J. Phys.:Condens. Matter 21 395502 (2009);
         "P. Giannozzi et al., J. Phys.:Condens. Matter 29 465901 (2017);
         "P. Giannozzi et al., J. Chem. Phys. 152 154105 (2020);
          URL http://www.quantum-espresso.org", 
     in publications or presentations arising from this work. More details at
     http://www.quantum-espresso.org/quote

     Parallel version (MPI & OpenMP), running on      40 processor cores
     Number of MPI processes:                40
     Threads/MPI process:                     1

     MPI processes distributed on     1 nodes
     224318 MiB available memory on the printing compute node when the environment starts

     Reading input from topw.al5.scf.in

     Current dimensions of program PWSCF are:
     Max number of different atomic species (ntypx) = 10
     Max number of k-points (npk) =  40000
     Max angular momentum in pseudopotentials (lmaxx) =  4
     file Al.pbe-n-kjpaw_psl.1.0.0.UPF: wavefunction(s)  3S 3P renormalized
     file O.pbe-n-kjpaw_psl.1.0.0.UPF: wavefunction(s)  2S 2P renormalized

     IMPORTANT: XC functional enforced from input :
     Exchange-correlation= PBE
                           (   1   4   3   4   0   0   0)
     Any further DFT definition will be discarded
     Please, verify this is what you really want


     K-points division:     npool     =      10
     R & G space division:  proc/nbgrp/npool/nimage =       4
     Subspace diagonalization in iterative solution of the eigenvalue problem:
     one sub-group per band group will be used
     custom distributed-memory algorithm (size of sub-group:  2*  2 procs)


     Parallelization info
     --------------------
     sticks:   dense  smooth     PW     G-vecs:    dense   smooth      PW
     Min         237     237     70                41081    41081    6494
     Max         238     238     71                41092    41092    6497
     Sum         949     949    281               164345   164345   25981

     Using Slab Decomposition



     bravais-lattice index     =            0
     lattice parameter (alat)  =      10.7939  a.u.
     unit-cell volume          =    7626.9344 (a.u.)^3
     number of atoms/cell      =           30
     number of atomic types    =            2
     number of electrons       =        96.00 (up:  49.00, down:  47.00)
     number of Kohn-Sham states=           59
     kinetic-energy cutoff     =      29.4000  Ry
     charge density cutoff     =     117.6000  Ry
     scf convergence threshold =      1.0E-08
     mixing beta               =       0.7000
     number of iterations used =            8  plain     mixing
     energy convergence thresh.=      1.0E-04
     force convergence thresh. =      1.0E-03
     Exchange-correlation= PBE
                           (   1   4   3   4   0   0   0)
     nstep                     =          100


     celldm(1)=  10.793946  celldm(2)=   0.000000  celldm(3)=   0.000000
     celldm(4)=   0.000000  celldm(5)=   0.000000  celldm(6)=   0.000000

     crystal axes: (cart. coord. in units of alat)
               a(1) = (   1.000000   0.000000   0.000000 )  
               a(2) = (   0.000000   0.866026   0.000000 )  
               a(3) = (   0.000000   0.000000   7.002911 )  

     reciprocal axes: (cart. coord. in units 2 pi/alat)
               b(1) = (  1.000000  0.000000  0.000000 )  
               b(2) = (  0.000000  1.154700  0.000000 )  
               b(3) = (  0.000000  0.000000  0.142798 )  


     PseudoPot. # 1 for Al read from file:
     ../pseudo/Al.pbe-n-kjpaw_psl.1.0.0.UPF
     MD5 check sum: 502b6b27b9c6270cab5dd1084b96fa6d
     Pseudo is Projector augmented-wave + core cor, Zval =  3.0
     Generated using &quot;atomic&quot; code by A. Dal Corso  v.6.3
     Shape of augmentation charge: PSQ
     Using radial grid of 1135 points,  6 beta functions with: 
                l(1) =   0
                l(2) =   0
                l(3) =   1
                l(4) =   1
                l(5) =   2
                l(6) =   2
     Q(r) pseudized with 0 coefficients 


     PseudoPot. # 2 for O  read from file:
     ../pseudo/O.pbe-n-kjpaw_psl.1.0.0.UPF
     MD5 check sum: e99d9cef9b487d1ca56f5b95ecd0fd7a
     Pseudo is Projector augmented-wave + core cor, Zval =  6.0
     Generated using &quot;atomic&quot; code by A. Dal Corso  v.6.3
     Shape of augmentation charge: PSQ
     Using radial grid of 1095 points,  4 beta functions with: 
                l(1) =   0
                l(2) =   0
                l(3) =   1
                l(4) =   1
     Q(r) pseudized with 0 coefficients 


     atomic species   valence    mass     pseudopotential
     Al                3.00    26.98000     Al( 1.00)
     O                 6.00    15.99000     O ( 1.00)

     Starting magnetic structure 
     atomic species   magnetization
     Al              0.000
     O               0.000

     No symmetry found


                                    s                        frac. trans.

      isym =  1     identity                                     

 cryst.   s( 1) = (     1          0          0      )
                  (     0          1          0      )
                  (     0          0          1      )

 cart.    s( 1) = (  1.0000000  0.0000000  0.0000000 )
                  (  0.0000000  1.0000000  0.0000000 )
                  (  0.0000000  0.0000000  1.0000000 )


   Cartesian axes

     site n.     atom                  positions (alat units)
         1        Al     tau(   1) = (   0.0000000   0.7216868   4.4628399  )
         2        Al     tau(   2) = (   0.5000009   0.7216868   4.4628399  )
         3        Al     tau(   3) = (   0.2500004   0.2886740   4.4628399  )
         4        Al     tau(   4) = (   0.7499996   0.2886740   4.4628399  )
         5        Al     tau(   5) = (   1.2500004   0.0000000   4.0545929  )
         6        Al     tau(   6) = (   0.5000009   0.4330128   4.0545929  )
         7        Al     tau(   7) = (   1.0000000   0.1443370   3.6463442  )
         8        Al     tau(   8) = (   1.0000000   0.4330128   4.0545929  )
         9        Al     tau(   9) = (   0.7499996   0.0000000   4.0545929  )
        10        Al     tau(  10) = (   1.2500004   0.0000000   2.8298468  )
        11        Al     tau(  11) = (   0.7499996   0.2886740   2.0133511  )
        12        Al     tau(  12) = (   1.0000000   0.1443370   2.4215998  )
        13        Al     tau(  13) = (   0.5000009   0.1443370   3.6463442  )
        14        Al     tau(  14) = (   0.7499996   0.5773498   3.6463442  )
        15        Al     tau(  15) = (   0.2500004   0.5773498   3.6463442  )
        16        Al     tau(  16) = (   0.2500004   0.5773498   2.4215998  )
        17        Al     tau(  17) = (   0.7499996   0.2886740   3.2380955  )
        18        Al     tau(  18) = (   0.0000000   0.7216868   3.2380955  )
        19        Al     tau(  19) = (   0.0000000   0.7216868   2.0133511  )
        20        Al     tau(  20) = (   0.5000009   0.4330128   2.8298468  )
        21        Al     tau(  21) = (   0.5000009   0.7216868   3.2380955  )
        22        Al     tau(  22) = (   0.5000009   0.7216868   2.0133511  )
        23        Al     tau(  23) = (   0.5000009   0.1443370   2.4215998  )
        24        Al     tau(  24) = (   1.0000000   0.4330128   2.8298468  )
        25        Al     tau(  25) = (   0.2500004   0.2886740   3.2380955  )
        26        Al     tau(  26) = (   0.2500004   0.2886740   2.0133511  )
        27        Al     tau(  27) = (   0.7499996   0.5773498   2.4215998  )
        28        Al     tau(  28) = (   0.7499996   0.0000000   2.8298468  )
        29        O      tau(  29) = (   0.8460165   0.2314742   4.9880583  )
        30        O      tau(  30) = (   0.6548370   0.3450965   4.9880583  )

   Crystallographic axes

     site n.     atom                  positions (cryst. coord.)
         1        Al     tau(   1) = (  0.0000000  0.8333320  0.6372835  )
         2        Al     tau(   2) = (  0.5000009  0.8333320  0.6372835  )
         3        Al     tau(   3) = (  0.2500004  0.3333320  0.6372835  )
         4        Al     tau(   4) = (  0.7499996  0.3333320  0.6372835  )
         5        Al     tau(   5) = (  1.2500004  0.0000000  0.5789867  )
         6        Al     tau(   6) = (  0.5000009  0.5000000  0.5789867  )
         7        Al     tau(   7) = (  1.0000000  0.1666660  0.5206898  )
         8        Al     tau(   8) = (  1.0000000  0.5000000  0.5789867  )
         9        Al     tau(   9) = (  0.7499996  0.0000000  0.5789867  )
        10        Al     tau(  10) = (  1.2500004  0.0000000  0.4040958  )
        11        Al     tau(  11) = (  0.7499996  0.3333320  0.2875020  )
        12        Al     tau(  12) = (  1.0000000  0.1666660  0.3457990  )
        13        Al     tau(  13) = (  0.5000009  0.1666660  0.5206898  )
        14        Al     tau(  14) = (  0.7499996  0.6666660  0.5206898  )
        15        Al     tau(  15) = (  0.2500004  0.6666660  0.5206898  )
        16        Al     tau(  16) = (  0.2500004  0.6666660  0.3457990  )
        17        Al     tau(  17) = (  0.7499996  0.3333320  0.4623928  )
        18        Al     tau(  18) = (  0.0000000  0.8333320  0.4623928  )
        19        Al     tau(  19) = (  0.0000000  0.8333320  0.2875020  )
        20        Al     tau(  20) = (  0.5000009  0.5000000  0.4040958  )
        21        Al     tau(  21) = (  0.5000009  0.8333320  0.4623928  )
        22        Al     tau(  22) = (  0.5000009  0.8333320  0.2875020  )
        23        Al     tau(  23) = (  0.5000009  0.1666660  0.3457990  )
        24        Al     tau(  24) = (  1.0000000  0.5000000  0.4040958  )
        25        Al     tau(  25) = (  0.2500004  0.3333320  0.4623928  )
        26        Al     tau(  26) = (  0.2500004  0.3333320  0.2875020  )
        27        Al     tau(  27) = (  0.7499996  0.6666660  0.3457990  )
        28        Al     tau(  28) = (  0.7499996  0.0000000  0.4040958  )
        29        O      tau(  29) = (  0.8460165  0.2672834  0.7122835  )
        30        O      tau(  30) = (  0.6548370  0.3984830  0.7122835  )

     number of k points=    10  Methfessel-Paxton smearing, width (Ry)=  0.0140
                       cart. coord. in units 2pi/alat
        k(    1) = (   0.0000000   0.0000000   0.0000000), wk =   0.0625000
        k(    2) = (   0.0000000   0.2886751   0.0000000), wk =   0.1250000
        k(    3) = (   0.0000000  -0.5773502   0.0000000), wk =   0.0625000
        k(    4) = (   0.2500000   0.0000000   0.0000000), wk =   0.1250000
        k(    5) = (   0.2500000   0.2886751   0.0000000), wk =   0.1250000
        k(    6) = (   0.2500000  -0.5773502   0.0000000), wk =   0.1250000
        k(    7) = (  -0.5000000   0.0000000   0.0000000), wk =   0.0625000
        k(    8) = (  -0.5000000   0.2886751   0.0000000), wk =   0.1250000
        k(    9) = (  -0.5000000  -0.5773502   0.0000000), wk =   0.0625000
        k(   10) = (  -0.2500000   0.2886751   0.0000000), wk =   0.1250000

                       cryst. coord.
        k(    1) = (   0.0000000   0.0000000   0.0000000), wk =   0.0625000
        k(    2) = (   0.0000000   0.2500000   0.0000000), wk =   0.1250000
        k(    3) = (   0.0000000  -0.5000000   0.0000000), wk =   0.0625000
        k(    4) = (   0.2500000   0.0000000   0.0000000), wk =   0.1250000
        k(    5) = (   0.2500000   0.2500000   0.0000000), wk =   0.1250000
        k(    6) = (   0.2500000  -0.5000000   0.0000000), wk =   0.1250000
        k(    7) = (  -0.5000000   0.0000000   0.0000000), wk =   0.0625000
        k(    8) = (  -0.5000000   0.2500000   0.0000000), wk =   0.1250000
        k(    9) = (  -0.5000000  -0.5000000   0.0000000), wk =   0.0625000
        k(   10) = (  -0.2500000   0.2500000   0.0000000), wk =   0.1250000

     Dense  grid:   164345 G-vectors     FFT dimensions: (  40,  36, 270)

     Dynamical RAM for                 wfc:       4.62 MB

     Dynamical RAM for     wfc (w. buffer):      13.86 MB

     Dynamical RAM for           str. fact:       1.25 MB

     Dynamical RAM for           local pot:       0.00 MB

     Dynamical RAM for          nlocal pot:      40.72 MB

     Dynamical RAM for                qrad:       1.74 MB

     Dynamical RAM for          rho,v,vnew:       8.24 MB

     Dynamical RAM for               rhoin:       2.75 MB

     Dynamical RAM for            rho*nmix:      20.06 MB

     Dynamical RAM for           G-vectors:       2.66 MB

     Dynamical RAM for          h,s,v(r/c):       0.16 MB

     Dynamical RAM for          <psi|beta>:       0.47 MB

     Dynamical RAM for                 psi:       9.24 MB

     Dynamical RAM for                hpsi:       9.24 MB

     Dynamical RAM for                spsi:       9.24 MB

     Dynamical RAM for      wfcinit/wfcrot:      19.12 MB

     Dynamical RAM for           addusdens:      14.61 MB

     Dynamical RAM for          addusforce:      17.65 MB

     Estimated static dynamical RAM per process >      77.60 MB

     Estimated max dynamical RAM per process >     126.01 MB

     Estimated total dynamical RAM >       4.22 GB

     Check: negative core charge=   -0.000017
     Generating pointlists ...
     new r_m :   0.2062 (alat units)  2.2262 (a.u.) for type    1
     new r_m :   0.0917 (alat units)  0.9902 (a.u.) for type    2

     Initial potential from superposition of free atoms

     starting charge      95.9359, renormalised to      96.0000

     negative rho (up, down):  2.762E-02 2.762E-02
     Starting wfcs are  120 randomized atomic wfcs
     Checking if some PAW data can be deallocated... 
       PAW data deallocated on    2 nodes for type:  1
       PAW data deallocated on   38 nodes for type:  2

     total cpu time spent up to now is       14.0 secs

     Self-consistent Calculation

     iteration #  1     ecut=    29.40 Ry     beta= 0.70
     Davidson diagonalization with overlap

---- Real-time Memory Report at c_bands before calling an iterative solver
           207 MiB given to the printing process from OS
             0 MiB allocation reported by mallinfo(arena+hblkhd)
        218055 MiB available memory on the node where the printing process lives
------------------
     ethr =  1.00E-02,  avg # of iterations =  3.7

     negative rho (up, down):  2.508E-02 2.419E-02

     total cpu time spent up to now is       35.1 secs

     total energy              =   -1178.58790193 Ry
     estimated scf accuracy    <      11.41174503 Ry

     total magnetization       =     2.00 Bohr mag/cell
     absolute magnetization    =     2.01 Bohr mag/cell

     iteration #  2     ecut=    29.40 Ry     beta= 0.70
     Davidson diagonalization with overlap

---- Real-time Memory Report at c_bands before calling an iterative solver
           225 MiB given to the printing process from OS
             0 MiB allocation reported by mallinfo(arena+hblkhd)
        215073 MiB available memory on the node where the printing process lives
------------------
     ethr =  1.00E-02,  avg # of iterations = 14.3

     negative rho (up, down):  9.119E-03 8.895E-03

     total cpu time spent up to now is      101.2 secs

     total energy              =   -1104.66014263 Ry
     estimated scf accuracy    <    6333.83019033 Ry

     total magnetization       =     2.00 Bohr mag/cell
     absolute magnetization    =     2.00 Bohr mag/cell

     iteration #  3     ecut=    29.40 Ry     beta= 0.70
     Davidson diagonalization with overlap

---- Real-time Memory Report at c_bands before calling an iterative solver
           235 MiB given to the printing process from OS
             0 MiB allocation reported by mallinfo(arena+hblkhd)
        218428 MiB available memory on the node where the printing process lives
------------------
     ethr =  1.00E-02,  avg # of iterations = 16.6

     negative rho (up, down):  7.496E-03 7.498E-03

     total cpu time spent up to now is      175.8 secs

     total energy              =   -1172.83781680 Ry
     estimated scf accuracy    <     650.88328709 Ry

     total magnetization       =     2.00 Bohr mag/cell
     absolute magnetization    =     2.05 Bohr mag/cell

     iteration #  4     ecut=    29.40 Ry     beta= 0.70
     Davidson diagonalization with overlap

---- Real-time Memory Report at c_bands before calling an iterative solver
           239 MiB given to the printing process from OS
             0 MiB allocation reported by mallinfo(arena+hblkhd)
        215031 MiB available memory on the node where the printing process lives
------------------
     ethr =  1.00E-02,  avg # of iterations =  6.8

     negative rho (up, down):  8.072E-03 8.128E-03

     total cpu time spent up to now is      201.8 secs

     total energy              =   -1183.08558301 Ry
     estimated scf accuracy    <     445.64757101 Ry

     total magnetization       =     2.00 Bohr mag/cell
     absolute magnetization    =     2.01 Bohr mag/cell

     iteration #  5     ecut=    29.40 Ry     beta= 0.70
     Davidson diagonalization with overlap

---- Real-time Memory Report at c_bands before calling an iterative solver
           243 MiB given to the printing process from OS
             0 MiB allocation reported by mallinfo(arena+hblkhd)
        214099 MiB available memory on the node where the printing process lives
------------------
     ethr =  1.00E-02,  avg # of iterations =  5.5

     negative rho (up, down):  9.654E-03 9.747E-03

     total cpu time spent up to now is      223.0 secs

     total energy              =   -1188.12110710 Ry
     estimated scf accuracy    <      15.51819870 Ry

     total magnetization       =     2.00 Bohr mag/cell
     absolute magnetization    =     2.01 Bohr mag/cell

     iteration #  6     ecut=    29.40 Ry     beta= 0.70
     Davidson diagonalization with overlap

---- Real-time Memory Report at c_bands before calling an iterative solver
           247 MiB given to the printing process from OS
             0 MiB allocation reported by mallinfo(arena+hblkhd)
        213592 MiB available memory on the node where the printing process lives
------------------
     ethr =  1.00E-02,  avg # of iterations =  2.1

     negative rho (up, down):  1.047E-02 1.059E-02

     total cpu time spent up to now is      238.8 secs

     total energy              =   -1188.69770686 Ry
     estimated scf accuracy    <       7.96110195 Ry

     total magnetization       =     2.00 Bohr mag/cell
     absolute magnetization    =     2.01 Bohr mag/cell

     iteration #  7     ecut=    29.40 Ry     beta= 0.70
     Davidson diagonalization with overlap

---- Real-time Memory Report at c_bands before calling an iterative solver
           248 MiB given to the printing process from OS
             0 MiB allocation reported by mallinfo(arena+hblkhd)
        213759 MiB available memory on the node where the printing process lives
------------------
     ethr =  8.29E-03,  avg # of iterations =  1.0

     negative rho (up, down):  1.199E-02 1.214E-02

     total cpu time spent up to now is      254.1 secs

     total energy              =   -1188.58155093 Ry
     estimated scf accuracy    <       7.17568705 Ry

     total magnetization       =     2.00 Bohr mag/cell
     absolute magnetization    =     2.01 Bohr mag/cell

     iteration #  8     ecut=    29.40 Ry     beta= 0.70
     Davidson diagonalization with overlap

---- Real-time Memory Report at c_bands before calling an iterative solver
           251 MiB given to the printing process from OS
             0 MiB allocation reported by mallinfo(arena+hblkhd)
        212720 MiB available memory on the node where the printing process lives
------------------
     ethr =  7.47E-03,  avg # of iterations =  1.0

     negative rho (up, down):  3.163E-02 2.937E-02

     total cpu time spent up to now is      269.5 secs

     total energy              =   -1188.33219911 Ry
     estimated scf accuracy    <       5.10562713 Ry

     total magnetization       =     2.00 Bohr mag/cell
     absolute magnetization    =     2.01 Bohr mag/cell

     iteration #  9     ecut=    29.40 Ry     beta= 0.70
     Davidson diagonalization with overlap

---- Real-time Memory Report at c_bands before calling an iterative solver
           254 MiB given to the printing process from OS
             0 MiB allocation reported by mallinfo(arena+hblkhd)
        213023 MiB available memory on the node where the printing process lives
------------------
     ethr =  5.32E-03,  avg # of iterations =  1.0

     negative rho (up, down):  1.722E-02 1.715E-02

     total cpu time spent up to now is      284.8 secs

     total energy              =   -1188.51080734 Ry
     estimated scf accuracy    <       7.17151672 Ry

     total magnetization       =     2.00 Bohr mag/cell
     absolute magnetization    =     2.01 Bohr mag/cell

     iteration # 10     ecut=    29.40 Ry     beta= 0.70
     Davidson diagonalization with overlap

---- Real-time Memory Report at c_bands before calling an iterative solver
           257 MiB given to the printing process from OS
             0 MiB allocation reported by mallinfo(arena+hblkhd)
        212057 MiB available memory on the node where the printing process lives
------------------
     ethr =  5.32E-03,  avg # of iterations =  1.0

     negative rho (up, down):  1.789E-02 1.547E-02

     total cpu time spent up to now is      300.2 secs

     total energy              =   -1188.58375972 Ry
     estimated scf accuracy    <       0.08184392 Ry

     total magnetization       =     2.00 Bohr mag/cell
     absolute magnetization    =     2.03 Bohr mag/cell

     iteration # 11     ecut=    29.40 Ry     beta= 0.70
     Davidson diagonalization with overlap

---- Real-time Memory Report at c_bands before calling an iterative solver
           259 MiB given to the printing process from OS
             0 MiB allocation reported by mallinfo(arena+hblkhd)
        212262 MiB available memory on the node where the printing process lives
------------------
     ethr =  8.53E-05,  avg # of iterations = 12.2

     negative rho (up, down):  3.258E-02 2.695E-02

     total cpu time spent up to now is      324.0 secs

     total energy              =   -1188.57844681 Ry
     estimated scf accuracy    <       0.37937401 Ry

     total magnetization       =     2.00 Bohr mag/cell
     absolute magnetization    =     2.04 Bohr mag/cell

     iteration # 12     ecut=    29.40 Ry     beta= 0.70
     Davidson diagonalization with overlap

---- Real-time Memory Report at c_bands before calling an iterative solver
           262 MiB given to the printing process from OS
             0 MiB allocation reported by mallinfo(arena+hblkhd)
        211522 MiB available memory on the node where the printing process lives
------------------
     ethr =  8.53E-05,  avg # of iterations =  2.4

     negative rho (up, down):  3.182E-02 2.644E-02

     total cpu time spent up to now is      340.7 secs

     total energy              =   -1188.60931810 Ry
     estimated scf accuracy    <       5.50864029 Ry

     total magnetization       =     2.00 Bohr mag/cell
     absolute magnetization    =     2.02 Bohr mag/cell

     iteration # 13     ecut=    29.40 Ry     beta= 0.70
     Davidson diagonalization with overlap

---- Real-time Memory Report at c_bands before calling an iterative solver
           262 MiB given to the printing process from OS
             0 MiB allocation reported by mallinfo(arena+hblkhd)
        210577 MiB available memory on the node where the printing process lives
------------------
     ethr =  8.53E-05,  avg # of iterations =  1.1

     negative rho (up, down):  3.665E-02 2.412E-02

     total cpu time spent up to now is      356.1 secs

     total energy              =   -1188.56492177 Ry
     estimated scf accuracy    <       0.96311519 Ry

     total magnetization       =     2.00 Bohr mag/cell
     absolute magnetization    =     2.05 Bohr mag/cell

     iteration # 14     ecut=    29.40 Ry     beta= 0.70
     Davidson diagonalization with overlap

---- Real-time Memory Report at c_bands before calling an iterative solver
           262 MiB given to the printing process from OS
             0 MiB allocation reported by mallinfo(arena+hblkhd)
        210843 MiB available memory on the node where the printing process lives
------------------
     ethr =  8.53E-05,  avg # of iterations =  2.2

     negative rho (up, down):  3.678E-02 2.701E-02

     total cpu time spent up to now is      373.1 secs

     total energy              =   -1188.58810063 Ry
     estimated scf accuracy    <       2.62914088 Ry

     total magnetization       =     2.00 Bohr mag/cell
     absolute magnetization    =     2.06 Bohr mag/cell

     iteration # 15     ecut=    29.40 Ry     beta= 0.70
     Davidson diagonalization with overlap

---- Real-time Memory Report at c_bands before calling an iterative solver
           262 MiB given to the printing process from OS
             0 MiB allocation reported by mallinfo(arena+hblkhd)
        209756 MiB available memory on the node where the printing process lives
------------------
     ethr =  8.53E-05,  avg # of iterations =  1.1

     negative rho (up, down):  3.753E-02 2.681E-02

     total cpu time spent up to now is      388.5 secs

     total energy              =   -1188.62636207 Ry
     estimated scf accuracy    <       0.06218650 Ry

     total magnetization       =     2.00 Bohr mag/cell
     absolute magnetization    =     2.09 Bohr mag/cell

     iteration # 16     ecut=    29.40 Ry     beta= 0.70
     Davidson diagonalization with overlap

---- Real-time Memory Report at c_bands before calling an iterative solver
           262 MiB given to the printing process from OS
             0 MiB allocation reported by mallinfo(arena+hblkhd)
        209992 MiB available memory on the node where the printing process lives
------------------
     ethr =  6.48E-05,  avg # of iterations =  2.0

     negative rho (up, down):  3.847E-02 2.699E-02

     total cpu time spent up to now is      404.8 secs

     total energy              =   -1188.62530048 Ry
     estimated scf accuracy    <       0.43583078 Ry

     total magnetization       =     2.00 Bohr mag/cell
     absolute magnetization    =     2.07 Bohr mag/cell

     iteration # 17     ecut=    29.40 Ry     beta= 0.70
     Davidson diagonalization with overlap

---- Real-time Memory Report at c_bands before calling an iterative solver
           262 MiB given to the printing process from OS
             0 MiB allocation reported by mallinfo(arena+hblkhd)
        209021 MiB available memory on the node where the printing process lives
------------------
     ethr =  6.48E-05,  avg # of iterations =  1.0

     negative rho (up, down):  3.821E-02 2.751E-02

     total cpu time spent up to now is      420.2 secs

     total energy              =   -1188.62970658 Ry
     estimated scf accuracy    <       0.06660971 Ry

     total magnetization       =     2.00 Bohr mag/cell
     absolute magnetization    =     2.07 Bohr mag/cell

     iteration # 18     ecut=    29.40 Ry     beta= 0.70
     Davidson diagonalization with overlap

---- Real-time Memory Report at c_bands before calling an iterative solver
           262 MiB given to the printing process from OS
             0 MiB allocation reported by mallinfo(arena+hblkhd)
        208627 MiB available memory on the node where the printing process lives
------------------
     ethr =  6.48E-05,  avg # of iterations =  1.0

     negative rho (up, down):  3.850E-02 2.768E-02

     total cpu time spent up to now is      435.6 secs

     total energy              =   -1188.63063695 Ry
     estimated scf accuracy    <       0.03422678 Ry

     total magnetization       =     2.00 Bohr mag/cell
     absolute magnetization    =     2.08 Bohr mag/cell

     iteration # 19     ecut=    29.40 Ry     beta= 0.70
     Davidson diagonalization with overlap

---- Real-time Memory Report at c_bands before calling an iterative solver
           262 MiB given to the printing process from OS
             0 MiB allocation reported by mallinfo(arena+hblkhd)
        208065 MiB available memory on the node where the printing process lives
------------------
     ethr =  3.57E-05,  avg # of iterations =  1.1

     negative rho (up, down):  3.857E-02 2.810E-02

     total cpu time spent up to now is      451.0 secs

     total energy              =   -1188.63081331 Ry
     estimated scf accuracy    <       0.03656936 Ry

     total magnetization       =     2.00 Bohr mag/cell
     absolute magnetization    =     2.08 Bohr mag/cell

     iteration # 20     ecut=    29.40 Ry     beta= 0.70
     Davidson diagonalization with overlap

---- Real-time Memory Report at c_bands before calling an iterative solver
           262 MiB given to the printing process from OS
             0 MiB allocation reported by mallinfo(arena+hblkhd)
        207676 MiB available memory on the node where the printing process lives
------------------
     ethr =  3.57E-05,  avg # of iterations =  1.0

     negative rho (up, down):  3.961E-02 2.873E-02

     total cpu time spent up to now is      466.4 secs

     total energy              =   -1188.63184965 Ry
     estimated scf accuracy    <       0.03178115 Ry

     total magnetization       =     2.00 Bohr mag/cell
     absolute magnetization    =     2.08 Bohr mag/cell

     iteration # 21     ecut=    29.40 Ry     beta= 0.70
     Davidson diagonalization with overlap

---- Real-time Memory Report at c_bands before calling an iterative solver
           263 MiB given to the printing process from OS
             0 MiB allocation reported by mallinfo(arena+hblkhd)
        207978 MiB available memory on the node where the printing process lives
------------------
     ethr =  3.31E-05,  avg # of iterations =  1.1

     negative rho (up, down):  4.010E-02 2.794E-02

     total cpu time spent up to now is      481.8 secs

     total energy              =   -1188.63467332 Ry
     estimated scf accuracy    <       0.02989375 Ry

     total magnetization       =     2.00 Bohr mag/cell
     absolute magnetization    =     2.08 Bohr mag/cell

     iteration # 22     ecut=    29.40 Ry     beta= 0.70
     Davidson diagonalization with overlap

---- Real-time Memory Report at c_bands before calling an iterative solver
           263 MiB given to the printing process from OS
             0 MiB allocation reported by mallinfo(arena+hblkhd)
        207183 MiB available memory on the node where the printing process lives
------------------
     ethr =  3.11E-05,  avg # of iterations =  1.2

     negative rho (up, down):  4.383E-02 2.756E-02

     total cpu time spent up to now is      497.5 secs

     total energy              =   -1188.64562569 Ry
     estimated scf accuracy    <       0.08195498 Ry

     total magnetization       =     2.00 Bohr mag/cell
     absolute magnetization    =     2.12 Bohr mag/cell

     iteration # 23     ecut=    29.40 Ry     beta= 0.70
     Davidson diagonalization with overlap

---- Real-time Memory Report at c_bands before calling an iterative solver
           263 MiB given to the printing process from OS
             0 MiB allocation reported by mallinfo(arena+hblkhd)
        206694 MiB available memory on the node where the printing process lives
------------------
     ethr =  3.11E-05,  avg # of iterations =  2.2

     negative rho (up, down):  4.579E-02 2.570E-02

     total cpu time spent up to now is      514.8 secs

     total energy              =   -1188.64902470 Ry
     estimated scf accuracy    <       0.10742579 Ry

     total magnetization       =     2.00 Bohr mag/cell
     absolute magnetization    =     2.15 Bohr mag/cell

     iteration # 24     ecut=    29.40 Ry     beta= 0.70
     Davidson diagonalization with overlap

---- Real-time Memory Report at c_bands before calling an iterative solver
           263 MiB given to the printing process from OS
             0 MiB allocation reported by mallinfo(arena+hblkhd)
        206771 MiB available memory on the node where the printing process lives
------------------
     ethr =  3.11E-05,  avg # of iterations =  1.5

     negative rho (up, down):  4.594E-02 2.489E-02

     total cpu time spent up to now is      530.4 secs

     total energy              =   -1188.64590657 Ry
     estimated scf accuracy    <       0.09680214 Ry

     total magnetization       =     2.00 Bohr mag/cell
     absolute magnetization    =     2.16 Bohr mag/cell

     iteration # 25     ecut=    29.40 Ry     beta= 0.70
     Davidson diagonalization with overlap

---- Real-time Memory Report at c_bands before calling an iterative solver
           263 MiB given to the printing process from OS
             0 MiB allocation reported by mallinfo(arena+hblkhd)
        205767 MiB available memory on the node where the printing process lives
------------------
     ethr =  3.11E-05,  avg # of iterations =  1.1

     negative rho (up, down):  4.638E-02 2.484E-02

     total cpu time spent up to now is      545.9 secs

     total energy              =   -1188.64670339 Ry
     estimated scf accuracy    <       0.01570271 Ry

     total magnetization       =     2.00 Bohr mag/cell
     absolute magnetization    =     2.15 Bohr mag/cell

     iteration # 26     ecut=    29.40 Ry     beta= 0.70
     Davidson diagonalization with overlap

---- Real-time Memory Report at c_bands before calling an iterative solver
           263 MiB given to the printing process from OS
             0 MiB allocation reported by mallinfo(arena+hblkhd)
        205281 MiB available memory on the node where the printing process lives
------------------
     ethr =  1.64E-05,  avg # of iterations =  1.4

     negative rho (up, down):  4.651E-02 2.501E-02

     total cpu time spent up to now is      561.4 secs

     total energy              =   -1188.64691757 Ry
     estimated scf accuracy    <       0.00547324 Ry

     total magnetization       =     2.00 Bohr mag/cell
     absolute magnetization    =     2.15 Bohr mag/cell

     iteration # 27     ecut=    29.40 Ry     beta= 0.70
     Davidson diagonalization with overlap

---- Real-time Memory Report at c_bands before calling an iterative solver
           263 MiB given to the printing process from OS
             0 MiB allocation reported by mallinfo(arena+hblkhd)
        205510 MiB available memory on the node where the printing process lives
------------------
     ethr =  5.70E-06,  avg # of iterations =  1.6

     negative rho (up, down):  4.673E-02 2.527E-02

     total cpu time spent up to now is      577.1 secs

     total energy              =   -1188.64688642 Ry
     estimated scf accuracy    <       0.00304785 Ry

     total magnetization       =     2.00 Bohr mag/cell
     absolute magnetization    =     2.14 Bohr mag/cell

     iteration # 28     ecut=    29.40 Ry     beta= 0.70
     Davidson diagonalization with overlap

---- Real-time Memory Report at c_bands before calling an iterative solver
           263 MiB given to the printing process from OS
             0 MiB allocation reported by mallinfo(arena+hblkhd)
        204864 MiB available memory on the node where the printing process lives
------------------
     ethr =  3.17E-06,  avg # of iterations =  3.9

     negative rho (up, down):  4.661E-02 2.522E-02

     total cpu time spent up to now is      594.8 secs

     total energy              =   -1188.64677802 Ry
     estimated scf accuracy    <       0.00314452 Ry

     total magnetization       =     2.00 Bohr mag/cell
     absolute magnetization    =     2.14 Bohr mag/cell

     iteration # 29     ecut=    29.40 Ry     beta= 0.70
     Davidson diagonalization with overlap

---- Real-time Memory Report at c_bands before calling an iterative solver
           263 MiB given to the printing process from OS
             0 MiB allocation reported by mallinfo(arena+hblkhd)
        204794 MiB available memory on the node where the printing process lives
------------------
     ethr =  3.17E-06,  avg # of iterations =  2.0

     negative rho (up, down):  4.677E-02 2.544E-02

     total cpu time spent up to now is      611.6 secs

     total energy              =   -1188.64701906 Ry
     estimated scf accuracy    <       0.00546927 Ry

     total magnetization       =     2.00 Bohr mag/cell
     absolute magnetization    =     2.14 Bohr mag/cell

     iteration # 30     ecut=    29.40 Ry     beta= 0.70
     Davidson diagonalization with overlap

---- Real-time Memory Report at c_bands before calling an iterative solver
           263 MiB given to the printing process from OS
             0 MiB allocation reported by mallinfo(arena+hblkhd)
        203839 MiB available memory on the node where the printing process lives
------------------
     ethr =  3.17E-06,  avg # of iterations =  1.2

     negative rho (up, down):  4.666E-02 2.552E-02

     total cpu time spent up to now is      627.2 secs

     total energy              =   -1188.64695484 Ry
     estimated scf accuracy    <       0.00725082 Ry

     total magnetization       =     2.00 Bohr mag/cell
     absolute magnetization    =     2.14 Bohr mag/cell

     iteration # 31     ecut=    29.40 Ry     beta= 0.70
     Davidson diagonalization with overlap

---- Real-time Memory Report at c_bands before calling an iterative solver
           263 MiB given to the printing process from OS
             0 MiB allocation reported by mallinfo(arena+hblkhd)
        203930 MiB available memory on the node where the printing process lives
------------------
     ethr =  3.17E-06,  avg # of iterations =  1.0

     negative rho (up, down):  4.664E-02 2.554E-02

     total cpu time spent up to now is      642.6 secs

     total energy              =   -1188.64715064 Ry
     estimated scf accuracy    <       0.00051613 Ry

     total magnetization       =     2.00 Bohr mag/cell
     absolute magnetization    =     2.14 Bohr mag/cell

     iteration # 32     ecut=    29.40 Ry     beta= 0.70
     Davidson diagonalization with overlap

---- Real-time Memory Report at c_bands before calling an iterative solver
           263 MiB given to the printing process from OS
             0 MiB allocation reported by mallinfo(arena+hblkhd)
        203015 MiB available memory on the node where the printing process lives
------------------
     ethr =  5.38E-07,  avg # of iterations =  1.8

     negative rho (up, down):  4.674E-02 2.553E-02

     total cpu time spent up to now is      658.4 secs

     total energy              =   -1188.64718821 Ry
     estimated scf accuracy    <       0.00035200 Ry

     total magnetization       =     2.00 Bohr mag/cell
     absolute magnetization    =     2.14 Bohr mag/cell

     iteration # 33     ecut=    29.40 Ry     beta= 0.70
     Davidson diagonalization with overlap

---- Real-time Memory Report at c_bands before calling an iterative solver
           263 MiB given to the printing process from OS
             0 MiB allocation reported by mallinfo(arena+hblkhd)
        203131 MiB available memory on the node where the printing process lives
------------------
     ethr =  3.67E-07,  avg # of iterations =  1.0

     negative rho (up, down):  4.675E-02 2.554E-02

     total cpu time spent up to now is      673.7 secs

     total energy              =   -1188.64719719 Ry
     estimated scf accuracy    <       0.00009567 Ry

     total magnetization       =     2.00 Bohr mag/cell
     absolute magnetization    =     2.14 Bohr mag/cell

     iteration # 34     ecut=    29.40 Ry     beta= 0.70
     Davidson diagonalization with overlap

---- Real-time Memory Report at c_bands before calling an iterative solver
           263 MiB given to the printing process from OS
             0 MiB allocation reported by mallinfo(arena+hblkhd)
        202803 MiB available memory on the node where the printing process lives
------------------
     ethr =  9.97E-08,  avg # of iterations =  1.4

     negative rho (up, down):  4.676E-02 2.554E-02

     total cpu time spent up to now is      689.4 secs

     total energy              =   -1188.64719908 Ry
     estimated scf accuracy    <       0.00005963 Ry

     total magnetization       =     2.00 Bohr mag/cell
     absolute magnetization    =     2.14 Bohr mag/cell

     iteration # 35     ecut=    29.40 Ry     beta= 0.70
     Davidson diagonalization with overlap

---- Real-time Memory Report at c_bands before calling an iterative solver
           263 MiB given to the printing process from OS
             0 MiB allocation reported by mallinfo(arena+hblkhd)
        212863 MiB available memory on the node where the printing process lives
------------------
     ethr =  6.21E-08,  avg # of iterations =  1.4

     negative rho (up, down):  4.677E-02 2.553E-02

     total cpu time spent up to now is      704.9 secs

     total energy              =   -1188.64720125 Ry
     estimated scf accuracy    <       0.00001127 Ry

     total magnetization       =     2.00 Bohr mag/cell
     absolute magnetization    =     2.14 Bohr mag/cell

     iteration # 36     ecut=    29.40 Ry     beta= 0.70
     Davidson diagonalization with overlap

---- Real-time Memory Report at c_bands before calling an iterative solver
           263 MiB given to the printing process from OS
             0 MiB allocation reported by mallinfo(arena+hblkhd)
        212174 MiB available memory on the node where the printing process lives
------------------
     ethr =  1.17E-08,  avg # of iterations =  3.1

     negative rho (up, down):  4.677E-02 2.553E-02

     total cpu time spent up to now is      721.7 secs

     total energy              =   -1188.64720194 Ry
     estimated scf accuracy    <       0.00000308 Ry

     total magnetization       =     2.00 Bohr mag/cell
     absolute magnetization    =     2.14 Bohr mag/cell

     iteration # 37     ecut=    29.40 Ry     beta= 0.70
     Davidson diagonalization with overlap

---- Real-time Memory Report at c_bands before calling an iterative solver
           263 MiB given to the printing process from OS
             0 MiB allocation reported by mallinfo(arena+hblkhd)
        230611 MiB available memory on the node where the printing process lives
------------------
     ethr =  3.21E-09,  avg # of iterations =  4.8

     negative rho (up, down):  4.677E-02 2.553E-02

     total cpu time spent up to now is      739.3 secs

     total energy              =   -1188.64720219 Ry
     estimated scf accuracy    <       0.00000102 Ry

     total magnetization       =     2.00 Bohr mag/cell
     absolute magnetization    =     2.14 Bohr mag/cell

     iteration # 38     ecut=    29.40 Ry     beta= 0.70
     Davidson diagonalization with overlap

---- Real-time Memory Report at c_bands before calling an iterative solver
           263 MiB given to the printing process from OS
             0 MiB allocation reported by mallinfo(arena+hblkhd)
        226225 MiB available memory on the node where the printing process lives
------------------
     ethr =  1.07E-09,  avg # of iterations =  3.6

     negative rho (up, down):  4.678E-02 2.553E-02

     total cpu time spent up to now is      756.6 secs

     total energy              =   -1188.64720262 Ry
     estimated scf accuracy    <       0.00000068 Ry

     total magnetization       =     2.00 Bohr mag/cell
     absolute magnetization    =     2.14 Bohr mag/cell

     iteration # 39     ecut=    29.40 Ry     beta= 0.70
     Davidson diagonalization with overlap

---- Real-time Memory Report at c_bands before calling an iterative solver
           263 MiB given to the printing process from OS
             0 MiB allocation reported by mallinfo(arena+hblkhd)
        228067 MiB available memory on the node where the printing process lives
------------------
     ethr =  7.14E-10,  avg # of iterations =  2.5

     negative rho (up, down):  4.678E-02 2.553E-02

     total cpu time spent up to now is      773.8 secs

     total energy              =   -1188.64720257 Ry
     estimated scf accuracy    <       0.00000113 Ry

     total magnetization       =     2.00 Bohr mag/cell
     absolute magnetization    =     2.14 Bohr mag/cell

     iteration # 40     ecut=    29.40 Ry     beta= 0.70
     Davidson diagonalization with overlap

---- Real-time Memory Report at c_bands before calling an iterative solver
           263 MiB given to the printing process from OS
             0 MiB allocation reported by mallinfo(arena+hblkhd)
        226606 MiB available memory on the node where the printing process lives
------------------
     ethr =  7.14E-10,  avg # of iterations =  1.1

     negative rho (up, down):  4.678E-02 2.553E-02

     total cpu time spent up to now is      789.2 secs

     total energy              =   -1188.64720263 Ry
     estimated scf accuracy    <       0.00000004 Ry

     total magnetization       =     2.00 Bohr mag/cell
     absolute magnetization    =     2.14 Bohr mag/cell

     iteration # 41     ecut=    29.40 Ry     beta= 0.70
     Davidson diagonalization with overlap

---- Real-time Memory Report at c_bands before calling an iterative solver
           263 MiB given to the printing process from OS
             0 MiB allocation reported by mallinfo(arena+hblkhd)
        226847 MiB available memory on the node where the printing process lives
------------------
     ethr =  4.59E-11,  avg # of iterations =  5.9

     negative rho (up, down):  4.678E-02 2.553E-02

     total cpu time spent up to now is      812.0 secs

     total energy              =   -1188.64720257 Ry
     estimated scf accuracy    <       0.00000002 Ry

     total magnetization       =     2.00 Bohr mag/cell
     absolute magnetization    =     2.14 Bohr mag/cell

     iteration # 42     ecut=    29.40 Ry     beta= 0.70
     Davidson diagonalization with overlap

---- Real-time Memory Report at c_bands before calling an iterative solver
           263 MiB given to the printing process from OS
             0 MiB allocation reported by mallinfo(arena+hblkhd)
        225641 MiB available memory on the node where the printing process lives
------------------
     ethr =  2.27E-11,  avg # of iterations =  1.9

     negative rho (up, down):  4.678E-02 2.553E-02

     total cpu time spent up to now is      828.1 secs

     total energy              =   -1188.64720267 Ry
     estimated scf accuracy    <       0.00000001 Ry

     total magnetization       =     2.00 Bohr mag/cell
     absolute magnetization    =     2.14 Bohr mag/cell

     iteration # 43     ecut=    29.40 Ry     beta= 0.70
     Davidson diagonalization with overlap

---- Real-time Memory Report at c_bands before calling an iterative solver
           263 MiB given to the printing process from OS
             0 MiB allocation reported by mallinfo(arena+hblkhd)
        224391 MiB available memory on the node where the printing process lives
------------------
     ethr =  1.38E-11,  avg # of iterations =  1.9

     negative rho (up, down):  4.678E-02 2.553E-02

     Magnetic moment per site  (integrated on atomic sphere of radius R)
     atom   1 (R=0.206)  charge=  1.6116  magn=  0.0060
     atom   2 (R=0.206)  charge=  1.6118  magn=  0.0044
     atom   3 (R=0.206)  charge=  1.6102  magn=  0.0051
     atom   4 (R=0.206)  charge=  1.6041  magn=  0.0052
     atom   5 (R=0.206)  charge=  1.7209  magn=  0.0057
     atom   6 (R=0.206)  charge=  1.7206  magn=  0.0051
     atom   7 (R=0.206)  charge=  1.7192  magn=  0.0040
     atom   8 (R=0.206)  charge=  1.7216  magn=  0.0036
     atom   9 (R=0.206)  charge=  1.7215  magn=  0.0053
     atom  10 (R=0.206)  charge=  1.7198  magn=  0.0040
     atom  11 (R=0.206)  charge=  1.6157  magn=  0.0035
     atom  12 (R=0.206)  charge=  1.7213  magn=  0.0043
     atom  13 (R=0.206)  charge=  1.7197  magn=  0.0030
     atom  14 (R=0.206)  charge=  1.7195  magn=  0.0041
     atom  15 (R=0.206)  charge=  1.7192  magn=  0.0038
     atom  16 (R=0.206)  charge=  1.7215  magn=  0.0051
     atom  17 (R=0.206)  charge=  1.7199  magn=  0.0052
     atom  18 (R=0.206)  charge=  1.7189  magn=  0.0072
     atom  19 (R=0.206)  charge=  1.6153  magn=  0.0062
     atom  20 (R=0.206)  charge=  1.7197  magn=  0.0038
     atom  21 (R=0.206)  charge=  1.7191  magn=  0.0072
     atom  22 (R=0.206)  charge=  1.6154  magn=  0.0060
     atom  23 (R=0.206)  charge=  1.7211  magn=  0.0048
     atom  24 (R=0.206)  charge=  1.7197  magn=  0.0036
     atom  25 (R=0.206)  charge=  1.7192  magn=  0.0064
     atom  26 (R=0.206)  charge=  1.6155  magn=  0.0045
     atom  27 (R=0.206)  charge=  1.7212  magn=  0.0052
     atom  28 (R=0.206)  charge=  1.7193  magn=  0.0043
     atom  29 (R=0.092)  charge=  3.1403  magn=  0.5250
     atom  30 (R=0.092)  charge=  3.1416  magn=  0.5258

     total cpu time spent up to now is      844.4 secs

     End of self-consistent calculation

 ------ SPIN UP ------------


          k = 0.0000 0.0000 0.0000 ( 20545 PWs)   bands (ev):

   -26.0161 -15.2400 -10.2825  -9.9035  -9.3161  -8.4801  -7.4991  -7.3078
    -6.9599  -6.9078  -6.0685  -5.8184  -5.8173  -5.4494  -5.4478  -4.8788
    -4.8768  -4.5769  -4.3682  -4.3618  -4.0650  -4.0612  -4.0334  -3.9701
    -3.4727  -3.4128  -3.0743  -3.0292  -3.0200  -2.6918  -2.6476  -1.8361
    -1.8159  -1.7975  -1.2607  -1.2272  -1.1053  -0.9628  -0.5446  -0.5038
    -0.2278  -0.1363  -0.1243  -0.1238  -0.1072  -0.1057   0.1350   0.1395
     0.3893   0.3936   0.6507   0.8105   0.8121   1.1151   1.1178   1.2043
     1.3295   1.3879   1.3955

     occupation numbers 
     1.0000   1.0000   1.0000   1.0000   1.0000   1.0000   1.0000   1.0000
     1.0000   1.0000   1.0000   1.0000   1.0000   1.0000   1.0000   1.0000
     1.0000   1.0000   1.0000   1.0000   1.0000   1.0000   1.0000   1.0000
     1.0000   1.0000   1.0000   1.0000   1.0000   1.0000   1.0000   1.0000
     1.0000   1.0000   1.0000   1.0000   1.0000   1.0000   1.0000   1.0000
     1.0000   1.0000   1.0000   1.0000   1.0000   1.0000   1.0000   1.0000
     1.0060   1.0065   0.9643   0.3943   0.3876  -0.0175  -0.0169  -0.0041
    -0.0002  -0.0000  -0.0000

          k = 0.0000 0.2887 0.0000 ( 20546 PWs)   bands (ev):

   -26.0158 -15.2412  -9.9050  -9.5269  -8.9413  -8.1101  -7.4025  -7.0777
    -6.9946  -6.9210  -6.8453  -6.5446  -5.9691  -5.7118  -5.4532  -5.4522
    -5.1452  -5.0855  -5.0841  -4.5178  -4.5160  -4.2139  -4.0910  -3.7112
    -3.7075  -2.8556  -2.7318  -2.7291  -2.7140  -2.5362  -2.5343  -2.2177
    -2.2164  -1.8145  -1.8065  -1.5172  -1.4049  -1.3797  -1.1503  -1.1008
    -0.9405  -0.8560  -0.7293  -0.6688  -0.6587  -0.1257   0.2346   0.2421
     0.2720   0.3464   0.3614   0.7051   0.9962   1.4396   1.4547   1.5587
     1.5772   1.7007   2.0404

     occupation numbers 
     1.0000   1.0000   1.0000   1.0000   1.0000   1.0000   1.0000   1.0000
     1.0000   1.0000   1.0000   1.0000   1.0000   1.0000   1.0000   1.0000
     1.0000   1.0000   1.0000   1.0000   1.0000   1.0000   1.0000   1.0000
     1.0000   1.0000   1.0000   1.0000   1.0000   1.0000   1.0000   1.0000
     1.0000   1.0000   1.0000   1.0000   1.0000   1.0000   1.0000   1.0000
     1.0000   1.0000   1.0000   1.0000   1.0000   1.0000   1.0002   1.0002
     1.0004   1.0026   1.0035   0.8279  -0.0327  -0.0000  -0.0000  -0.0000
    -0.0000  -0.0000  -0.0000

          k = 0.0000-0.5774 0.0000 ( 20588 PWs)   bands (ev):

   -26.0163 -15.2429  -8.7791  -8.7781  -8.4045  -8.4031  -7.8334  -7.8202
    -7.3961  -7.0555  -7.0502  -6.9579  -6.8336  -5.9112  -5.8807  -4.6423
    -4.6155  -4.3695  -4.3670  -4.3624  -4.3618  -4.0342  -4.0313  -3.9711
    -3.9701  -3.4747  -3.4734  -3.4138  -3.4112  -3.1481  -3.1133  -2.6936
    -2.6904  -2.6516  -2.6464  -1.8124  -1.7955  -1.7069  -1.6609  -1.2507
    -1.2355  -1.0767  -0.9190  -0.2411  -0.2263  -0.1436  -0.1192   0.1186
     0.1599   1.1887   1.2075   1.3233   1.3502   1.8390   1.9015   2.4812
     2.5049   2.6667   2.6970

     occupation numbers 
     1.0000   1.0000   1.0000   1.0000   1.0000   1.0000   1.0000   1.0000
     1.0000   1.0000   1.0000   1.0000   1.0000   1.0000   1.0000   1.0000
     1.0000   1.0000   1.0000   1.0000   1.0000   1.0000   1.0000   1.0000
     1.0000   1.0000   1.0000   1.0000   1.0000   1.0000   1.0000   1.0000
     1.0000   1.0000   1.0000   1.0000   1.0000   1.0000   1.0000   1.0000
     1.0000   1.0000   1.0000   1.0000   1.0000   1.0000   1.0000   1.0000
     1.0000  -0.0055  -0.0038  -0.0002  -0.0001  -0.0000  -0.0000  -0.0000
    -0.0000  -0.0000  -0.0000

          k = 0.2500 0.0000 0.0000 ( 20445 PWs)   bands (ev):

   -26.0154 -15.2407  -9.9993  -9.6209  -9.0348  -8.2018  -7.7541  -7.4133
    -7.3690  -7.1362  -6.9508  -6.8928  -6.7733  -5.9652  -5.8014  -4.9028
    -4.3050  -4.0973  -4.0906  -3.7654  -3.6985  -3.6440  -3.3727  -3.2065
    -3.1415  -3.0148  -2.8124  -2.4704  -2.4266  -2.3835  -2.1688  -1.9636
    -1.9527  -1.7306  -1.5896  -1.5638  -1.5410  -1.1245  -1.1043  -1.0620
    -1.0109  -0.9575  -0.9126  -0.8205  -0.6598  -0.3998  -0.0630   0.0220
     0.1147   0.3786   0.9046   0.9729   1.2573   1.4039   1.4130   1.5187
     2.0439   2.3164   2.3435

     occupation numbers 
     1.0000   1.0000   1.0000   1.0000   1.0000   1.0000   1.0000   1.0000
     1.0000   1.0000   1.0000   1.0000   1.0000   1.0000   1.0000   1.0000
     1.0000   1.0000   1.0000   1.0000   1.0000   1.0000   1.0000   1.0000
     1.0000   1.0000   1.0000   1.0000   1.0000   1.0000   1.0000   1.0000
     1.0000   1.0000   1.0000   1.0000   1.0000   1.0000   1.0000   1.0000
     1.0000   1.0000   1.0000   1.0000   1.0000   1.0000   1.0000   1.0000
     1.0000   1.0049   0.0713  -0.0227  -0.0013  -0.0000  -0.0000  -0.0000
    -0.0000  -0.0000  -0.0000

          k = 0.2500 0.2887 0.0000 ( 20544 PWs)   bands (ev):

   -26.0159 -15.2433  -9.6226  -9.2452  -8.6613  -7.8368  -7.3871  -7.3713
    -7.0252  -6.9992  -6.9556  -6.6784  -6.6423  -6.4258  -6.2709  -5.6961
    -5.6016  -5.4402  -4.8741  -4.5431  -4.4534  -4.0895  -3.9400  -3.8236
    -3.5305  -3.2924  -3.0228  -2.7495  -2.6378  -2.5933  -2.4587  -2.1179
    -1.8522  -1.8046  -1.2851  -1.2654  -1.0744  -0.9474  -0.8774  -0.6234
    -0.4849  -0.4592  -0.4002  -0.1366  -0.0090   0.1301   0.2981   0.5333
     0.8532   0.9311   0.9550   0.9609   1.2492   1.3113   1.5452   1.5968
     1.7241   1.9324   2.2086

     occupation numbers 
     1.0000   1.0000   1.0000   1.0000   1.0000   1.0000   1.0000   1.0000
     1.0000   1.0000   1.0000   1.0000   1.0000   1.0000   1.0000   1.0000
     1.0000   1.0000   1.0000   1.0000   1.0000   1.0000   1.0000   1.0000
     1.0000   1.0000   1.0000   1.0000   1.0000   1.0000   1.0000   1.0000
     1.0000   1.0000   1.0000   1.0000   1.0000   1.0000   1.0000   1.0000
     1.0000   1.0000   1.0000   1.0000   1.0000   1.0000   1.0009   1.0340
     0.2229   0.0213  -0.0086  -0.0140  -0.0016  -0.0003  -0.0000  -0.0000
    -0.0000  -0.0000  -0.0000

          k = 0.2500-0.5774 0.0000 ( 20558 PWs)   bands (ev):

   -26.0160 -15.2450  -8.4989  -8.4980  -8.1257  -8.1235  -7.5673  -7.5422
    -7.3610  -7.0246  -6.9595  -6.7020  -6.6516  -6.2772  -6.2749  -5.9072
    -5.9033  -5.6370  -5.6132  -5.3343  -5.3292  -4.5165  -4.5116  -4.3703
    -4.3464  -3.4757  -3.4696  -2.8793  -2.8478  -2.2965  -2.2886  -1.9194
    -1.9176  -1.6644  -1.6605  -1.4579  -1.4060  -1.1770  -1.1417  -1.0766
    -0.8810  -0.4821  -0.4556   0.0054   0.0089   0.3662   0.4101   0.7523
     0.7839   0.9288   0.9330   2.0695   2.1133   2.1221   2.1428   2.5767
     2.6099   3.0330   3.0646

     occupation numbers 
     1.0000   1.0000   1.0000   1.0000   1.0000   1.0000   1.0000   1.0000
     1.0000   1.0000   1.0000   1.0000   1.0000   1.0000   1.0000   1.0000
     1.0000   1.0000   1.0000   1.0000   1.0000   1.0000   1.0000   1.0000
     1.0000   1.0000   1.0000   1.0000   1.0000   1.0000   1.0000   1.0000
     1.0000   1.0000   1.0000   1.0000   1.0000   1.0000   1.0000   1.0000
     1.0000   1.0000   1.0000   1.0000   1.0000   1.0039   1.0086   0.6493
     0.5116   0.0248   0.0183  -0.0000  -0.0000  -0.0000  -0.0000  -0.0000
    -0.0000  -0.0000  -0.0000

          k =-0.5000 0.0000 0.0000 ( 20498 PWs)   bands (ev):

   -26.0160 -15.2434  -9.1531  -9.1529  -8.7780  -8.7757  -8.1999  -8.1906
    -7.4548  -7.3545  -7.2962  -6.9629  -6.9204  -6.2801  -6.2356  -5.0082
    -4.9767  -3.5119  -3.4737  -3.2886  -3.2881  -3.2813  -3.2810  -2.9646
    -2.9637  -2.8893  -2.8888  -2.4132  -2.4121  -2.3372  -2.3356  -2.0637
    -2.0077  -1.6409  -1.6390  -1.6084  -1.6035  -1.0832  -0.9710  -0.7813
    -0.7570  -0.5048  -0.5031  -0.1990  -0.1814  -0.1695  -0.1556  -0.1290
    -0.1246   0.2845   0.2875   0.5405   0.5433   1.1051   1.1100   1.6216
     1.6710   1.7135   1.7290

     occupation numbers 
     1.0000   1.0000   1.0000   1.0000   1.0000   1.0000   1.0000   1.0000
     1.0000   1.0000   1.0000   1.0000   1.0000   1.0000   1.0000   1.0000
     1.0000   1.0000   1.0000   1.0000   1.0000   1.0000   1.0000   1.0000
     1.0000   1.0000   1.0000   1.0000   1.0000   1.0000   1.0000   1.0000
     1.0000   1.0000   1.0000   1.0000   1.0000   1.0000   1.0000   1.0000
     1.0000   1.0000   1.0000   1.0000   1.0000   1.0000   1.0000   1.0000
     1.0000   1.0006   1.0007   1.0348   1.0351  -0.0198  -0.0186  -0.0000
    -0.0000  -0.0000  -0.0000

          k =-0.5000 0.2887 0.0000 ( 20554 PWs)   bands (ev):

   -26.0163 -15.2451  -8.7787  -8.7785  -8.4050  -8.4021  -7.8328  -7.8186
    -7.3784  -7.0605  -7.0109  -6.9677  -6.8414  -5.9130  -5.8834  -5.8182
    -5.8172  -5.4493  -5.4472  -4.8788  -4.8755  -4.6440  -4.6176  -4.0640
    -4.0597  -3.1517  -3.1179  -3.0270  -3.0184  -1.8278  -1.8123  -1.7206
    -1.6609  -1.0805  -0.9404  -0.5513  -0.5225  -0.1260  -0.1258  -0.1076
    -0.1069   0.1246   0.1356   0.1431   0.1551   0.3897   0.3930   0.8090
     0.8130   1.1139   1.1196   1.3786   1.3962   1.6178   1.6193   1.7930
     1.7962   1.8461   1.8970

     occupation numbers 
     1.0000   1.0000   1.0000   1.0000   1.0000   1.0000   1.0000   1.0000
     1.0000   1.0000   1.0000   1.0000   1.0000   1.0000   1.0000   1.0000
     1.0000   1.0000   1.0000   1.0000   1.0000   1.0000   1.0000   1.0000
     1.0000   1.0000   1.0000   1.0000   1.0000   1.0000   1.0000   1.0000
     1.0000   1.0000   1.0000   1.0000   1.0000   1.0000   1.0000   1.0000
     1.0000   1.0000   1.0000   1.0000   1.0000   1.0060   1.0064   0.4009
     0.3836  -0.0177  -0.0165  -0.0001  -0.0000  -0.0000  -0.0000  -0.0000
    -0.0000  -0.0000  -0.0000

          k =-0.5000-0.5774 0.0000 ( 20556 PWs)   bands (ev):

   -26.0157 -15.2469  -7.6634  -7.6617  -7.6614  -7.6602  -7.3908  -7.2905
    -7.2885  -7.2868  -7.2748  -7.0186  -6.9654  -6.7083  -6.7078  -6.7022
    -6.6601  -5.8798  -5.8794  -5.8761  -5.8526  -4.8188  -4.8187  -4.8151
    -4.7915  -3.5640  -3.5615  -3.5571  -3.5301  -2.1067  -2.0892  -2.0816
    -2.0441  -1.0666  -1.0201  -0.6697  -0.6690  -0.6211  -0.5492   0.7377
     0.7413   0.7573   0.7622   1.1549   1.1573   1.1680   1.1843   1.6218
     1.6252   1.6299   1.6586   2.0511   2.0525   2.0535   2.0555   2.7144
     2.7154   2.7169   2.7352

     occupation numbers 
     1.0000   1.0000   1.0000   1.0000   1.0000   1.0000   1.0000   1.0000
     1.0000   1.0000   1.0000   1.0000   1.0000   1.0000   1.0000   1.0000
     1.0000   1.0000   1.0000   1.0000   1.0000   1.0000   1.0000   1.0000
     1.0000   1.0000   1.0000   1.0000   1.0000   1.0000   1.0000   1.0000
     1.0000   1.0000   1.0000   1.0000   1.0000   1.0000   1.0000   0.7091
     0.6949   0.6282   0.6071  -0.0098  -0.0095  -0.0079  -0.0059  -0.0000
    -0.0000  -0.0000  -0.0000  -0.0000  -0.0000  -0.0000  -0.0000  -0.0000
    -0.0000  -0.0000  -0.0000

          k =-0.2500 0.2887 0.0000 ( 20544 PWs)   bands (ev):

   -26.0158 -15.2429  -9.6225  -9.2451  -8.6607  -7.8341  -7.3916  -7.3698
    -7.0302  -6.9882  -6.9581  -6.6854  -6.6421  -6.4237  -6.2702  -5.6950
    -5.6000  -5.4435  -4.8724  -4.5408  -4.4535  -4.0900  -3.9448  -3.8207
    -3.5318  -3.2886  -3.0230  -2.7525  -2.6379  -2.5886  -2.4664  -2.1183
    -1.8418  -1.8121  -1.2871  -1.2500  -1.0978  -0.9481  -0.8813  -0.5988
    -0.4923  -0.4728  -0.3915  -0.1406  -0.0140   0.1267   0.2988   0.5257
     0.8570   0.9351   0.9512   0.9612   1.2469   1.3128   1.5421   1.5992
     1.7236   1.9331   2.1990

     occupation numbers 
     1.0000   1.0000   1.0000   1.0000   1.0000   1.0000   1.0000   1.0000
     1.0000   1.0000   1.0000   1.0000   1.0000   1.0000   1.0000   1.0000
     1.0000   1.0000   1.0000   1.0000   1.0000   1.0000   1.0000   1.0000
     1.0000   1.0000   1.0000   1.0000   1.0000   1.0000   1.0000   1.0000
     1.0000   1.0000   1.0000   1.0000   1.0000   1.0000   1.0000   1.0000
     1.0000   1.0000   1.0000   1.0000   1.0000   1.0000   1.0009   1.0328
     0.2093   0.0152  -0.0048  -0.0142  -0.0017  -0.0003  -0.0000  -0.0000
    -0.0000  -0.0000  -0.0000

 ------ SPIN DOWN ----------


          k = 0.0000 0.0000 0.0000 ( 20545 PWs)   bands (ev):

   -24.9382 -13.6697 -10.2721  -9.8936  -9.3031  -8.4654  -7.3995  -6.6746
    -6.1198  -5.8089  -5.8077  -5.5067  -5.4405  -5.4151  -5.1912  -4.8653
    -4.8610  -4.5337  -4.3583  -4.3507  -4.0530  -4.0480  -4.0233  -3.9599
    -3.4591  -3.4011  -3.0535  -3.0158  -3.0035  -2.6808  -2.6358  -1.8122
    -1.8026  -1.7853  -1.2337  -1.2017  -0.5599  -0.5429  -0.2294  -0.1374
    -0.1143  -0.1139  -0.0992  -0.0982   0.1371   0.1436   0.3848   0.3971
     0.6709   0.7565   0.8129   0.8999   0.9705   1.1374   1.1424   1.2596
     1.3467   1.4238   1.4707

     occupation numbers 
     1.0000   1.0000   1.0000   1.0000   1.0000   1.0000   1.0000   1.0000
     1.0000   1.0000   1.0000   1.0000   1.0000   1.0000   1.0000   1.0000
     1.0000   1.0000   1.0000   1.0000   1.0000   1.0000   1.0000   1.0000
     1.0000   1.0000   1.0000   1.0000   1.0000   1.0000   1.0000   1.0000
     1.0000   1.0000   1.0000   1.0000   1.0000   1.0000   1.0000   1.0000
     1.0000   1.0000   1.0000   1.0000   1.0000   1.0000   1.0106   1.0127
     0.8161   0.4656   0.2320   0.0116  -0.0348  -0.0070  -0.0064  -0.0005
    -0.0000  -0.0000  -0.0000

          k = 0.0000 0.2887 0.0000 ( 20546 PWs)   bands (ev):

   -24.9379 -13.6712  -9.8946  -9.5170  -8.9280  -8.0928  -7.0384  -6.9109
    -6.6516  -6.5381  -5.9685  -5.8019  -5.4557  -5.4426  -5.4217  -5.2405
    -5.1112  -5.0744  -5.0702  -4.5051  -4.5017  -4.1842  -4.0730  -3.6993
    -3.6950  -2.8428  -2.7190  -2.7156  -2.6913  -2.5258  -2.5241  -2.2077
    -2.2071  -1.7979  -1.7947  -1.4969  -1.3721  -1.3646  -1.1389  -0.8696
    -0.7295  -0.6686  -0.6619  -0.1218   0.2142   0.2310   0.2717   0.3346
     0.3553   0.7074   0.8829   1.0214   1.0769   1.4529   1.4826   1.5782
     1.6309   1.7172   2.0647

     occupation numbers 
     1.0000   1.0000   1.0000   1.0000   1.0000   1.0000   1.0000   1.0000
     1.0000   1.0000   1.0000   1.0000   1.0000   1.0000   1.0000   1.0000
     1.0000   1.0000   1.0000   1.0000   1.0000   1.0000   1.0000   1.0000
     1.0000   1.0000   1.0000   1.0000   1.0000   1.0000   1.0000   1.0000
     1.0000   1.0000   1.0000   1.0000   1.0000   1.0000   1.0000   1.0000
     1.0000   1.0000   1.0000   1.0000   1.0003   1.0004   1.0011   1.0044
     1.0064   0.6788   0.0386  -0.0306  -0.0176  -0.0000  -0.0000  -0.0000
    -0.0000  -0.0000  -0.0000

          k = 0.0000-0.5774 0.0000 ( 20588 PWs)   bands (ev):

   -24.9387 -13.6733  -8.7684  -8.7678  -8.3941  -8.3925  -7.8121  -7.8066
    -6.9996  -6.9741  -6.6538  -5.9473  -5.9086  -5.4601  -5.2698  -4.6248
    -4.5741  -4.3582  -4.3577  -4.3514  -4.3513  -4.0243  -4.0224  -3.9605
    -3.9599  -3.4610  -3.4595  -3.4022  -3.3997  -3.1333  -3.0906  -2.6825
    -2.6795  -2.6379  -2.6352  -1.7892  -1.7839  -1.6854  -1.6389  -1.2251
    -1.2173  -0.2347  -0.2260  -0.1539  -0.1346   0.1063   0.1699   0.8253
     1.0292   1.2023   1.2743   1.3370   1.4227   1.8677   1.9244   2.4940
     2.5231   2.6811   2.7271

     occupation numbers 
     1.0000   1.0000   1.0000   1.0000   1.0000   1.0000   1.0000   1.0000
     1.0000   1.0000   1.0000   1.0000   1.0000   1.0000   1.0000   1.0000
     1.0000   1.0000   1.0000   1.0000   1.0000   1.0000   1.0000   1.0000
     1.0000   1.0000   1.0000   1.0000   1.0000   1.0000   1.0000   1.0000
     1.0000   1.0000   1.0000   1.0000   1.0000   1.0000   1.0000   1.0000
     1.0000   1.0000   1.0000   1.0000   1.0000   1.0000   1.0001   0.1884
    -0.0289  -0.0019  -0.0003  -0.0001  -0.0000  -0.0000  -0.0000  -0.0000
    -0.0000  -0.0000  -0.0000

          k = 0.2500 0.0000 0.0000 ( 20445 PWs)   bands (ev):

   -24.9374 -13.6709  -9.9888  -9.6110  -9.0216  -8.1856  -7.7434  -7.3712
    -7.1259  -6.7938  -6.6378  -5.9754  -5.8708  -5.4377  -5.1829  -4.8782
    -4.2719  -4.0875  -4.0796  -3.7557  -3.6883  -3.6287  -3.3623  -3.1930
    -3.1299  -3.0051  -2.7895  -2.4576  -2.4157  -2.3717  -2.1496  -1.9527
    -1.9425  -1.7157  -1.5803  -1.5532  -1.5256  -1.0955  -1.0186  -0.9710
    -0.9459  -0.8354  -0.7309  -0.3990  -0.0641   0.0193   0.1136   0.3710
     0.7595   0.9424   1.0359   1.1152   1.2785   1.4209   1.4436   1.5435
     2.0616   2.3257   2.3558

     occupation numbers 
     1.0000   1.0000   1.0000   1.0000   1.0000   1.0000   1.0000   1.0000
     1.0000   1.0000   1.0000   1.0000   1.0000   1.0000   1.0000   1.0000
     1.0000   1.0000   1.0000   1.0000   1.0000   1.0000   1.0000   1.0000
     1.0000   1.0000   1.0000   1.0000   1.0000   1.0000   1.0000   1.0000
     1.0000   1.0000   1.0000   1.0000   1.0000   1.0000   1.0000   1.0000
     1.0000   1.0000   1.0000   1.0000   1.0000   1.0000   1.0000   1.0084
     0.4525  -0.0268  -0.0273  -0.0102  -0.0003  -0.0000  -0.0000  -0.0000
    -0.0000  -0.0000  -0.0000

          k = 0.2500 0.2887 0.0000 ( 20544 PWs)   bands (ev):

   -24.9380 -13.6738  -9.6121  -9.2352  -8.6475  -7.8145  -7.3726  -7.0015
    -6.7925  -6.6348  -6.6019  -6.4216  -6.2649  -5.7143  -5.6471  -5.5612
    -5.3181  -5.2184  -4.8558  -4.5264  -4.4428  -4.0794  -3.9141  -3.8083
    -3.5176  -3.2786  -3.0123  -2.7377  -2.6286  -2.5801  -2.4372  -2.1051
    -1.8291  -1.7928  -1.2515  -1.2416  -0.8752  -0.6100  -0.5086  -0.4697
    -0.3979  -0.1409  -0.0085   0.1275   0.2942   0.4994   0.8329   0.8773
     0.9349   0.9632   1.0114   1.1379   1.2718   1.3247   1.5605   1.6179
     1.7512   1.9461   2.2299

     occupation numbers 
     1.0000   1.0000   1.0000   1.0000   1.0000   1.0000   1.0000   1.0000
     1.0000   1.0000   1.0000   1.0000   1.0000   1.0000   1.0000   1.0000
     1.0000   1.0000   1.0000   1.0000   1.0000   1.0000   1.0000   1.0000
     1.0000   1.0000   1.0000   1.0000   1.0000   1.0000   1.0000   1.0000
     1.0000   1.0000   1.0000   1.0000   1.0000   1.0000   1.0000   1.0000
     1.0000   1.0000   1.0000   1.0000   1.0019   1.0345   0.1637   0.0491
    -0.0226  -0.0337  -0.0325  -0.0069  -0.0004  -0.0001  -0.0000  -0.0000
    -0.0000  -0.0000  -0.0000

          k = 0.2500-0.5774 0.0000 ( 20558 PWs)   bands (ev):

   -24.9382 -13.6759  -8.4882  -8.4876  -8.1147  -8.1129  -7.5343  -7.5282
    -6.7543  -6.6973  -6.6023  -6.2668  -6.2661  -5.9033  -5.8972  -5.7259
    -5.6370  -5.4267  -5.3291  -5.2905  -5.2460  -4.5045  -4.4965  -4.3557
    -4.3136  -3.4637  -3.4550  -2.8648  -2.8272  -2.2838  -2.2749  -1.9081
    -1.9068  -1.6521  -1.6511  -1.4256  -1.3827  -1.1325  -1.1271  -0.4844
    -0.4701   0.0081   0.0163   0.3406   0.4087   0.6710   0.7590   0.9029
     0.9324   1.0633   1.1427   2.0935   2.1286   2.1335   2.1673   2.5934
     2.6324   3.0487   3.0799

     occupation numbers 
     1.0000   1.0000   1.0000   1.0000   1.0000   1.0000   1.0000   1.0000
     1.0000   1.0000   1.0000   1.0000   1.0000   1.0000   1.0000   1.0000
     1.0000   1.0000   1.0000   1.0000   1.0000   1.0000   1.0000   1.0000
     1.0000   1.0000   1.0000   1.0000   1.0000   1.0000   1.0000   1.0000
     1.0000   1.0000   1.0000   1.0000   1.0000   1.0000   1.0000   1.0000
     1.0000   1.0000   1.0000   1.0049   1.0150   0.8157   0.4547   0.0076
    -0.0210  -0.0207  -0.0064  -0.0000  -0.0000  -0.0000  -0.0000  -0.0000
    -0.0000  -0.0000  -0.0000

          k =-0.5000 0.0000 0.0000 ( 20498 PWs)   bands (ev):

   -24.9381 -13.6744  -9.1426  -9.1425  -8.7674  -8.7660  -8.1830  -8.1784
    -7.3583  -7.3432  -6.6566  -6.2800  -6.2716  -5.5281  -5.2035  -4.9908
    -4.9077  -3.4992  -3.4458  -3.2788  -3.2783  -3.2703  -3.2700  -2.9552
    -2.9540  -2.8793  -2.8789  -2.3993  -2.3991  -2.3257  -2.3240  -2.0411
    -1.9840  -1.6293  -1.6266  -1.5938  -1.5926  -0.7751  -0.7728  -0.4968
    -0.4955  -0.2382  -0.1806  -0.1690  -0.1432  -0.1222  -0.1207   0.2842
     0.2918   0.5162   0.5386   0.8898   1.0824   1.1395   1.1467   1.6709
     1.6964   1.7234   1.7462

     occupation numbers 
     1.0000   1.0000   1.0000   1.0000   1.0000   1.0000   1.0000   1.0000
     1.0000   1.0000   1.0000   1.0000   1.0000   1.0000   1.0000   1.0000
     1.0000   1.0000   1.0000   1.0000   1.0000   1.0000   1.0000   1.0000
     1.0000   1.0000   1.0000   1.0000   1.0000   1.0000   1.0000   1.0000
     1.0000   1.0000   1.0000   1.0000   1.0000   1.0000   1.0000   1.0000
     1.0000   1.0000   1.0000   1.0000   1.0000   1.0000   1.0000   1.0015
     1.0018   1.0355   1.0328   0.0268  -0.0164  -0.0067  -0.0059  -0.0000
    -0.0000  -0.0000  -0.0000

          k =-0.5000 0.2887 0.0000 ( 20554 PWs)   bands (ev):

   -24.9384 -13.6763  -8.7682  -8.7680  -8.3939  -8.3924  -7.8116  -7.8062
    -6.9960  -6.9731  -6.6360  -5.9500  -5.9043  -5.8088  -5.8078  -5.5036
    -5.4401  -5.4119  -5.2394  -4.8664  -4.8560  -4.6324  -4.5748  -4.0534
    -4.0440  -3.1389  -3.0956  -3.0155  -3.0024  -1.8103  -1.8000  -1.6931
    -1.6380  -0.5536  -0.5381  -0.1162  -0.1157  -0.0987  -0.0980   0.0809
     0.1421   0.1446   0.1672   0.3908   0.3989   0.7724   0.8148   0.9221
     1.0709   1.1391   1.1603   1.3954   1.4441   1.6286   1.6318   1.8060
     1.8110   1.8866   1.9200

     occupation numbers 
     1.0000   1.0000   1.0000   1.0000   1.0000   1.0000   1.0000   1.0000
     1.0000   1.0000   1.0000   1.0000   1.0000   1.0000   1.0000   1.0000
     1.0000   1.0000   1.0000   1.0000   1.0000   1.0000   1.0000   1.0000
     1.0000   1.0000   1.0000   1.0000   1.0000   1.0000   1.0000   1.0000
     1.0000   1.0000   1.0000   1.0000   1.0000   1.0000   1.0000   1.0000
     1.0000   1.0000   1.0001   1.0116   1.0131   0.3957   0.2250  -0.0131
    -0.0189  -0.0068  -0.0046  -0.0000  -0.0000  -0.0000  -0.0000  -0.0000
    -0.0000  -0.0000  -0.0000

          k =-0.5000-0.5774 0.0000 ( 20556 PWs)   bands (ev):

   -24.9377 -13.6783  -7.6514  -7.6507  -7.6504  -7.6502  -7.2829  -7.2779
    -7.2777  -7.2775  -6.7411  -6.6974  -6.6964  -6.6957  -6.6031  -5.9205
    -5.8757  -5.8689  -5.8683  -5.4798  -5.2683  -4.8079  -4.8073  -4.7916
    -4.7415  -3.5530  -3.5514  -3.5437  -3.5039  -2.0832  -2.0770  -2.0686
    -2.0235  -0.6869  -0.6654  -0.6549  -0.6015   0.6439   0.7433   0.7535
     0.7760   0.9412   1.0960   1.1687   1.1975   1.2057   1.2348   1.6362
     1.6396   1.6563   1.6749   2.0628   2.0647   2.0653   2.0704   2.7253
     2.7283   2.7303   2.7479

     occupation numbers 
     1.0000   1.0000   1.0000   1.0000   1.0000   1.0000   1.0000   1.0000
     1.0000   1.0000   1.0000   1.0000   1.0000   1.0000   1.0000   1.0000
     1.0000   1.0000   1.0000   1.0000   1.0000   1.0000   1.0000   1.0000
     1.0000   1.0000   1.0000   1.0000   1.0000   1.0000   1.0000   1.0000
     1.0000   1.0000   1.0000   1.0000   1.0000   0.8966   0.5242   0.4788
     0.3802  -0.0262  -0.0136  -0.0039  -0.0022  -0.0018  -0.0009  -0.0000
    -0.0000  -0.0000  -0.0000  -0.0000  -0.0000  -0.0000  -0.0000  -0.0000
    -0.0000  -0.0000  -0.0000

          k =-0.2500 0.2887 0.0000 ( 20544 PWs)   bands (ev):

   -24.9380 -13.6735  -9.6121  -9.2351  -8.6471  -7.8134  -7.3727  -7.0024
    -6.7847  -6.6366  -6.6111  -6.4201  -6.2646  -5.7167  -5.6513  -5.5567
    -5.3116  -5.2270  -4.8505  -4.5214  -4.4431  -4.0802  -3.9212  -3.8043
    -3.5192  -3.2740  -3.0125  -2.7400  -2.6288  -2.5764  -2.4439  -2.1054
    -1.8221  -1.7966  -1.2537  -1.2362  -0.8749  -0.6245  -0.4955  -0.4682
    -0.4045  -0.1363  -0.0074   0.1348   0.2988   0.5314   0.7695   0.8554
     0.9522   0.9575   1.0225   1.1058   1.2944   1.3350   1.5529   1.6206
     1.7462   1.9483   2.2138

     occupation numbers 
     1.0000   1.0000   1.0000   1.0000   1.0000   1.0000   1.0000   1.0000
     1.0000   1.0000   1.0000   1.0000   1.0000   1.0000   1.0000   1.0000
     1.0000   1.0000   1.0000   1.0000   1.0000   1.0000   1.0000   1.0000
     1.0000   1.0000   1.0000   1.0000   1.0000   1.0000   1.0000   1.0000
     1.0000   1.0000   1.0000   1.0000   1.0000   1.0000   1.0000   1.0000
     1.0000   1.0000   1.0000   1.0000   1.0021   1.0342   0.4086   0.0987
    -0.0308  -0.0324  -0.0303  -0.0117  -0.0002  -0.0001  -0.0000  -0.0000
    -0.0000  -0.0000  -0.0000

     the spin up/dw Fermi energies are     0.7865    0.7487 ev

!    total energy              =   -1188.64720259 Ry
     total all-electron energy =    -13898.338828 Ry
     estimated scf accuracy    <          2.5E-09 Ry
     smearing contrib. (-TS)   =      -0.00068194 Ry
     internal energy E=F+TS    =   -1188.64652065 Ry

     The total energy is F=E-TS. E is the sum of the following terms:
     one-electron contribution =   -3949.36481986 Ry
     hartree contribution      =    2001.88402312 Ry
     xc contribution           =     -86.35156827 Ry
     ewald contribution        =    1835.36236647 Ry
     one-center paw contrib.   =    -990.17652211 Ry
      -> PAW hartree energy AE =       1.23215832 Ry
      -> PAW hartree energy PS =      -1.22761402 Ry
      -> PAW xc energy AE      =     -36.50410154 Ry
      -> PAW xc energy PS      =       1.82299110 Ry
      -> total E_H with PAW    =    2001.88856742 Ry
      -> total E_XC with PAW   =    -121.03267870 Ry

     total magnetization       =     2.00 Bohr mag/cell
     absolute magnetization    =     2.14 Bohr mag/cell

     convergence has been achieved in  43 iterations

     negative rho (up, down):  4.678E-02 2.553E-02

     Forces acting on atoms (cartesian axes, Ry/au):

     atom    1 type  1   force =     0.00028883    0.00001640    0.00136823
     atom    2 type  1   force =    -0.00038829   -0.00010986    0.00138970
     atom    3 type  1   force =     0.00021168    0.00012238    0.00201586
     atom    4 type  1   force =    -0.00026772    0.00046651    0.00136360
     atom    5 type  1   force =    -0.00005746    0.00034305   -0.00716005
     atom    6 type  1   force =     0.00000937   -0.00005967   -0.00743173
     atom    7 type  1   force =     0.00019298    0.00035141    0.00532282
     atom    8 type  1   force =    -0.00013440    0.00012556   -0.00808647
     atom    9 type  1   force =    -0.00017859    0.00053444   -0.00827476
     atom   10 type  1   force =     0.00008452   -0.00015891   -0.00521396
     atom   11 type  1   force =     0.00006927   -0.00016920   -0.00068754
     atom   12 type  1   force =    -0.00024514   -0.00039214    0.00644451
     atom   13 type  1   force =    -0.00004235    0.00018519    0.00531054
     atom   14 type  1   force =     0.00017213    0.00013605    0.00527144
     atom   15 type  1   force =    -0.00006118   -0.00000670    0.00550917
     atom   16 type  1   force =     0.00002325   -0.00001785    0.00675724
     atom   17 type  1   force =     0.00012294    0.00009443    0.00038262
     atom   18 type  1   force =    -0.00006309   -0.00036337    0.00004631
     atom   19 type  1   force =    -0.00039036    0.00027844   -0.00052302
     atom   20 type  1   force =     0.00000918   -0.00023885   -0.00531340
     atom   21 type  1   force =     0.00008434   -0.00005909   -0.00007431
     atom   22 type  1   force =     0.00036200    0.00002550   -0.00060427
     atom   23 type  1   force =     0.00017482   -0.00022989    0.00665195
     atom   24 type  1   force =    -0.00001022   -0.00019820   -0.00498872
     atom   25 type  1   force =    -0.00006356    0.00016630    0.00014031
     atom   26 type  1   force =    -0.00009332   -0.00023422   -0.00021485
     atom   27 type  1   force =    -0.00012245   -0.00011332    0.00681159
     atom   28 type  1   force =    -0.00002757   -0.00024849   -0.00528877
     atom   29 type  2   force =    -0.00918936    0.00481749   -0.00018100
     atom   30 type  2   force =     0.00952975   -0.00506339   -0.00074304
     The non-local contrib.  to forces
     atom    1 type  1   force =    -0.00021402    0.00013814    0.02793836
     atom    2 type  1   force =     0.00012889   -0.00106597    0.02778974
     atom    3 type  1   force =    -0.00031602   -0.00026233    0.03082495
     atom    4 type  1   force =     0.00002539   -0.00061155    0.04508049
     atom    5 type  1   force =    -0.00080033    0.00060809   -0.00196016
     atom    6 type  1   force =    -0.00052125    0.00122552   -0.00271008
     atom    7 type  1   force =    -0.00025490    0.00173973    0.00160903
     atom    8 type  1   force =    -0.00018132    0.00057234   -0.00425329
     atom    9 type  1   force =     0.00001372   -0.00013985   -0.00287289
     atom   10 type  1   force =    -0.00017634   -0.00209658   -0.00133260
     atom   11 type  1   force =    -0.00005609    0.00092308   -0.02468088
     atom   12 type  1   force =     0.00008642   -0.00039512    0.00139235
     atom   13 type  1   force =     0.00035226    0.00158830    0.00063161
     atom   14 type  1   force =    -0.00002570    0.00164942    0.00144556
     atom   15 type  1   force =     0.00012040    0.00182734    0.00201657
     atom   16 type  1   force =     0.00000439   -0.00028852    0.00144140
     atom   17 type  1   force =     0.00009892    0.00009351   -0.00038553
     atom   18 type  1   force =    -0.00001394   -0.00022380    0.00049108
     atom   19 type  1   force =    -0.00002379    0.00079336   -0.02523005
     atom   20 type  1   force =    -0.00005784   -0.00162144   -0.00107959
     atom   21 type  1   force =     0.00027131    0.00009355    0.00054272
     atom   22 type  1   force =    -0.00015198    0.00088841   -0.02498612
     atom   23 type  1   force =    -0.00001647   -0.00047150    0.00139232
     atom   24 type  1   force =     0.00007489   -0.00185417   -0.00116239
     atom   25 type  1   force =     0.00016618   -0.00006016    0.00047021
     atom   26 type  1   force =    -0.00009931    0.00059563   -0.02453867
     atom   27 type  1   force =    -0.00005745   -0.00037226    0.00122891
     atom   28 type  1   force =     0.00016465   -0.00183291   -0.00127420
     atom   29 type  2   force =    -2.11878796    1.26039513   -0.11234564
     atom   30 type  2   force =     2.11790135   -1.26060450   -0.11236064
     The ionic contribution  to forces
     atom    1 type  1   force =     0.21646391   -0.01868786   12.25721609
     atom    2 type  1   force =    -0.21643109    0.01768887   12.25835183
     atom    3 type  1   force =     0.00079934    0.00038314   12.24765941
     atom    4 type  1   force =    -0.00085487    0.00066484   11.52200040
     atom    5 type  1   force =     0.00033741   -0.00701708    7.35203507
     atom    6 type  1   force =    -0.02156668    0.00796435    7.32221597
     atom    7 type  1   force =     0.00163156   -0.00041675    2.54204556
     atom    8 type  1   force =     0.02155203    0.00836041    7.32300922
     atom    9 type  1   force =    -0.00034918   -0.00929533    7.31180642
     atom   10 type  1   force =    -0.00000617   -0.00000156   -7.02779038
     atom   11 type  1   force =     0.00000658    0.00000050  -16.56268712
     atom   12 type  1   force =     0.00000687   -0.00000005  -11.81277142
[...]
     atom   10 type  1   force =    -0.00019297   -0.00217382   -0.00109982
     atom   11 type  1   force =    -0.00005397    0.00101145   -0.02457375
     atom   12 type  1   force =     0.00006980   -0.00025020    0.00119825
     atom   13 type  1   force =     0.00042568    0.00144146   -0.00817681
     atom   14 type  1   force =    -0.00022592    0.00162888   -0.00736815
     atom   15 type  1   force =     0.00028970    0.00197140   -0.00706615
     atom   16 type  1   force =    -0.00000499   -0.00016184    0.00122894
     atom   17 type  1   force =     0.00010131    0.00021277    0.00152050
     atom   18 type  1   force =     0.00002751   -0.00006918    0.00243044
     atom   19 type  1   force =    -0.00002067    0.00087691   -0.02508404
     atom   20 type  1   force =    -0.00007348   -0.00167158   -0.00085745
     atom   21 type  1   force =     0.00026861    0.00021261    0.00251780
     atom   22 type  1   force =    -0.00014972    0.00097211   -0.02484255
     atom   23 type  1   force =    -0.00000847   -0.00033592    0.00120256
     atom   24 type  1   force =     0.00007374   -0.00191187   -0.00091061
     atom   25 type  1   force =     0.00019891    0.00012843    0.00236733
     atom   26 type  1   force =    -0.00009434    0.00067131   -0.02432076
     atom   27 type  1   force =    -0.00005994   -0.00022710    0.00102912
     atom   28 type  1   force =     0.00014827   -0.00187191   -0.00104927
     atom   29 type  2   force =    -2.11774993    1.27886747   -0.11156303
     atom   30 type  2   force =     2.11692693   -1.27897109   -0.11220014
     The ionic contribution  to forces
     atom    1 type  1   force =     0.21383180   -0.01802834   12.25555492
     atom    2 type  1   force =    -0.21378430    0.01935378   12.25805092
     atom    3 type  1   force =    -0.00126718    0.00028393   12.24858641
     atom    4 type  1   force =     0.00062790   -0.00068356   11.52063640
     atom    5 type  1   force =    -0.00025858   -0.00771715    7.39730647
     atom    6 type  1   force =    -0.02071063    0.00952639    7.36604768
     atom    7 type  1   force =     0.00145091   -0.00195243    2.51608279
     atom    8 type  1   force =     0.02063494    0.00891874    7.36490944
     atom    9 type  1   force =     0.00046764   -0.01100043    7.35271062
     atom   10 type  1   force =     0.00000447   -0.00002050   -7.03094599
     atom   11 type  1   force =     0.00000652    0.00000051  -16.56585234
     atom   12 type  1   force =     0.00000776   -0.00000057  -11.81593791
     atom   13 type  1   force =    -0.00165595   -0.00103711    2.51639965
     atom   14 type  1   force =    -0.00110863    0.00102287    2.51481720
     atom   15 type  1   force =     0.00105753    0.00191810    2.52133971
     atom   16 type  1   force =    -0.00000523    0.00000057  -11.81593403
     atom   17 type  1   force =    -0.00015256   -0.00009388   -2.24752970
     atom   18 type  1   force =     0.00045091    0.00002742   -2.24708457
     atom   19 type  1   force =     0.00000556   -0.00000018  -16.56584973
     atom   20 type  1   force =    -0.00003214    0.00001430   -7.03096032
     atom   21 type  1   force =    -0.00042853   -0.00008208   -2.24687186
     atom   22 type  1   force =    -0.00000672    0.00000049  -16.56585206
     atom   23 type  1   force =    -0.00000930   -0.00000054  -11.81593632
     atom   24 type  1   force =     0.00003062    0.00001461   -7.03098651
     atom   25 type  1   force =     0.00019893    0.00033499   -2.24741270
     atom   26 type  1   force =    -0.00000536   -0.00000016  -16.56584961
     atom   27 type  1   force =     0.00000678    0.00000053  -11.81593795
     atom   28 type  1   force =    -0.00000276   -0.00000967   -7.03098477
     atom   29 type  2   force =    10.27386598   -6.04318336   31.40311320
     atom   30 type  2   force =   -10.27322039    6.04239272   31.40437096
     The local contribution  to forces
     atom    1 type  1   force =    -0.21326243    0.01802156  -12.27763910
     atom    2 type  1   force =     0.21318716   -0.01847577  -12.27999382
     atom    3 type  1   force =     0.00182372    0.00026429  -12.27251612
     atom    4 type  1   force =    -0.00096447    0.00200978  -11.55787699
     atom    5 type  1   force =     0.00092656    0.00724032   -7.40478124
     atom    6 type  1   force =     0.02119151   -0.01093697   -7.37332987
     atom    7 type  1   force =    -0.00098623    0.00081532   -2.51059685
     atom    8 type  1   force =    -0.02061330   -0.00950473   -7.37162988
     atom    9 type  1   force =    -0.00073913    0.01157846   -7.36092979
     atom   10 type  1   force =     0.00024948    0.00180508    7.02669724
     atom   11 type  1   force =     0.00011543   -0.00104081   16.58646553
     atom   12 type  1   force =    -0.00032119   -0.00018119   11.82148539
     atom   13 type  1   force =     0.00127643   -0.00013446   -2.51006040
     atom   14 type  1   force =     0.00132265   -0.00236457   -2.50925396
     atom   15 type  1   force =    -0.00124670   -0.00352606   -2.51588324
     atom   16 type  1   force =     0.00003042    0.00008529   11.82176605
     atom   17 type  1   force =     0.00018007   -0.00001277    2.24799512
     atom   18 type  1   force =    -0.00048210   -0.00033526    2.24640001
     atom   19 type  1   force =    -0.00036147   -0.00048709   16.58708217
     atom   20 type  1   force =     0.00009248    0.00123395    7.02640003
     atom   21 type  1   force =     0.00023309   -0.00018745    2.24597975
     atom   22 type  1   force =     0.00049239   -0.00082266   16.58678507
     atom   23 type  1   force =     0.00020544    0.00005420   11.82168883
     atom   24 type  1   force =    -0.00009723    0.00148546    7.02679939
     atom   25 type  1   force =    -0.00041162   -0.00023373    2.24678579
     atom   26 type  1   force =     0.00000135   -0.00078819   16.58666563
     atom   27 type  1   force =    -0.00006552    0.00006158   11.82200646
     atom   28 type  1   force =    -0.00015552    0.00141747    7.02662600
     atom   29 type  2   force =    -8.16914991    4.77118567  -31.29329062
     atom   30 type  2   force =     8.16962827   -4.77047212  -31.29443889
     The core correction contribution to forces
     atom    1 type  1   force =     0.00008194   -0.00002549   -0.00289735
     atom    2 type  1   force =    -0.00007527    0.00007477   -0.00289482
     atom    3 type  1   force =     0.00007720    0.00004420   -0.00319489
     atom    4 type  1   force =    -0.00004388    0.00014052   -0.00461019
     atom    5 type  1   force =     0.00008434   -0.00007452   -0.00108732
     atom    6 type  1   force =     0.00005869   -0.00019349   -0.00105952
     atom    7 type  1   force =     0.00004598   -0.00013476    0.00092153
     atom    8 type  1   force =     0.00000733   -0.00009987   -0.00101103
     atom    9 type  1   force =    -0.00002738    0.00004781   -0.00117833
     atom   10 type  1   force =     0.00002022    0.00021994    0.00009902
     atom   11 type  1   force =     0.00000594   -0.00009916    0.00308791
     atom   12 type  1   force =    -0.00000852    0.00002475   -0.00007693
     atom   13 type  1   force =    -0.00004506   -0.00014538    0.00101381
     atom   14 type  1   force =     0.00002786   -0.00016555    0.00092888
     atom   15 type  1   force =    -0.00003300   -0.00020517    0.00090435
     atom   16 type  1   force =     0.00000028    0.00001784   -0.00008045
     atom   17 type  1   force =    -0.00000959   -0.00002125   -0.00019448
     atom   18 type  1   force =    -0.00000381    0.00000597   -0.00028775
     atom   19 type  1   force =     0.00000176   -0.00008579    0.00313862
     atom   20 type  1   force =     0.00000779    0.00016811    0.00007279
     atom   21 type  1   force =    -0.00002608   -0.00002248   -0.00029774
     atom   22 type  1   force =     0.00001530   -0.00009326    0.00311391
     atom   23 type  1   force =     0.00000092    0.00003498   -0.00007761
     atom   24 type  1   force =    -0.00000697    0.00019442    0.00008042
     atom   25 type  1   force =    -0.00002063   -0.00001384   -0.00028227
     atom   26 type  1   force =     0.00000908   -0.00006496    0.00305594
     atom   27 type  1   force =     0.00000523    0.00002437   -0.00005749
     atom   28 type  1   force =    -0.00001452    0.00018974    0.00009368
     atom   29 type  2   force =     0.01261513   -0.00732389    0.00165844
     atom   30 type  2   force =    -0.01251511    0.00729974    0.00157359
     The Hubbard contrib.    to forces
     atom    1 type  1   force =     0.00000000    0.00000000    0.00000000
     atom    2 type  1   force =     0.00000000    0.00000000    0.00000000
     atom    3 type  1   force =     0.00000000    0.00000000    0.00000000
     atom    4 type  1   force =     0.00000000    0.00000000    0.00000000
     atom    5 type  1   force =     0.00000000    0.00000000    0.00000000
     atom    6 type  1   force =     0.00000000    0.00000000    0.00000000
     atom    7 type  1   force =     0.00000000    0.00000000    0.00000000
     atom    8 type  1   force =     0.00000000    0.00000000    0.00000000
     atom    9 type  1   force =     0.00000000    0.00000000    0.00000000
     atom   10 type  1   force =     0.00000000    0.00000000    0.00000000
     atom   11 type  1   force =     0.00000000    0.00000000    0.00000000
     atom   12 type  1   force =     0.00000000    0.00000000    0.00000000
     atom   13 type  1   force =     0.00000000    0.00000000    0.00000000
     atom   14 type  1   force =     0.00000000    0.00000000    0.00000000
     atom   15 type  1   force =     0.00000000    0.00000000    0.00000000
     atom   16 type  1   force =     0.00000000    0.00000000    0.00000000
     atom   17 type  1   force =     0.00000000    0.00000000    0.00000000
     atom   18 type  1   force =     0.00000000    0.00000000    0.00000000
     atom   19 type  1   force =     0.00000000    0.00000000    0.00000000
     atom   20 type  1   force =     0.00000000    0.00000000    0.00000000
     atom   21 type  1   force =     0.00000000    0.00000000    0.00000000
     atom   22 type  1   force =     0.00000000    0.00000000    0.00000000
     atom   23 type  1   force =     0.00000000    0.00000000    0.00000000
     atom   24 type  1   force =     0.00000000    0.00000000    0.00000000
     atom   25 type  1   force =     0.00000000    0.00000000    0.00000000
     atom   26 type  1   force =     0.00000000    0.00000000    0.00000000
     atom   27 type  1   force =     0.00000000    0.00000000    0.00000000
     atom   28 type  1   force =     0.00000000    0.00000000    0.00000000
     atom   29 type  2   force =     0.00000000    0.00000000    0.00000000
     atom   30 type  2   force =     0.00000000    0.00000000    0.00000000
     The SCF correction term to forces
     atom    1 type  1   force =    -0.00000022    0.00000003   -0.00000000
     atom    2 type  1   force =     0.00000022    0.00000001   -0.00000000
     atom    3 type  1   force =    -0.00000004   -0.00000004   -0.00000000
     atom    4 type  1   force =     0.00000005   -0.00000000   -0.00000000
     atom    5 type  1   force =    -0.00000011    0.00000003    0.00000040
     atom    6 type  1   force =     0.00000023   -0.00000005    0.00000046
     atom    7 type  1   force =    -0.00000005    0.00000002   -0.00000082
     atom    8 type  1   force =    -0.00000023   -0.00000005    0.00000044
     atom    9 type  1   force =     0.00000011    0.00000006    0.00000050
     atom   10 type  1   force =     0.00000000    0.00000000    0.00000000
     atom   11 type  1   force =    -0.00000000    0.00000000    0.00000000
     atom   12 type  1   force =     0.00000000    0.00000000    0.00000000
     atom   13 type  1   force =     0.00000005    0.00000002   -0.00000086
     atom   14 type  1   force =     0.00000008   -0.00000002   -0.00000079
     atom   15 type  1   force =    -0.00000008   -0.00000002   -0.00000094
     atom   16 type  1   force =     0.00000000   -0.00000000    0.00000000
     atom   17 type  1   force =     0.00000000    0.00000000   -0.00000000
     atom   18 type  1   force =     0.00000000   -0.00000000   -0.00000000
     atom   19 type  1   force =     0.00000000   -0.00000000    0.00000000
     atom   20 type  1   force =    -0.00000000   -0.00000000    0.00000000
     atom   21 type  1   force =    -0.00000000   -0.00000000   -0.00000000
     atom   22 type  1   force =    -0.00000000   -0.00000000    0.00000000
     atom   23 type  1   force =    -0.00000000    0.00000000    0.00000000
     atom   24 type  1   force =     0.00000000   -0.00000000    0.00000000
     atom   25 type  1   force =    -0.00000000    0.00000000   -0.00000000
     atom   26 type  1   force =    -0.00000000    0.00000000    0.00000000
     atom   27 type  1   force =    -0.00000000   -0.00000000    0.00000000
     atom   28 type  1   force =    -0.00000000    0.00000000    0.00000000
     atom   29 type  2   force =     0.00000180    0.00000161   -0.00000000
     atom   30 type  2   force =    -0.00000049   -0.00000046   -0.00000000

     Total force =     0.002210     Total SCF correction =     0.000003
     Energy error            =      1.2E-05 Ry
     Gradient error          =      9.0E-04 Ry/Bohr

     bfgs converged in   8 scf cycles and   7 bfgs steps
     (criteria: energy <  1.0E-04 Ry, force <  1.0E-03 Ry/Bohr)

     End of BFGS Geometry Optimization

     Final energy             =   -1188.6484325333 Ry

     File ./alo3.bfgs deleted, as requested
Begin final coordinates

ATOMIC_POSITIONS (angstrom)
Al               0.0006928105        4.1228376231       25.4913400000    1   1   0
Al               2.8545189453        4.1221837899       25.4913400000    1   1   0
Al               1.4285051817        1.6497140177       25.4913400000    1   1   0
Al               4.2829083239        1.6512422854       25.4913400000    1   1   0
Al               7.1394432571        0.0018792649       23.1326418391
Al               2.8558785807        2.4739738666       23.1311466845
Al               5.7130508157        0.8261158723       20.8425014895
Al               5.7111802056        2.4749071914       23.1286085099
Al               4.2829727979        0.0029734493       23.1277649958
Al               7.1398900000        0.0000000000       16.1638300000    0   0   0
Al               4.2839300000        1.6488800000       11.5000800000    0   0   0
Al               5.7119100000        0.8244400000       13.8319600000    0   0   0
Al               2.8557279786        0.8255257473       20.8426638158
Al               4.2845335660        3.2987386536       20.8422999587
Al               1.4280947735        3.2983911004       20.8441375351
Al               1.4279800000        3.2977700000       13.8319600000    0   0   0
Al               4.2839300000        1.6488800000       18.4957100000    0   0   0
Al               0.0000000000        4.1222100000       18.4957100000    0   0   0
Al               0.0000000000        4.1222100000       11.5000800000    0   0   0
Al               2.8559600000        2.4733300000       16.1638300000    0   0   0
Al               2.8559600000        4.1222100000       18.4957100000    0   0   0
Al               2.8559600000        4.1222100000       11.5000800000    0   0   0
Al               2.8559600000        0.8244400000       13.8319600000    0   0   0
Al               5.7119100000        2.4733300000       16.1638300000    0   0   0
Al               1.4279800000        1.6488800000       18.4957100000    0   0   0
Al               1.4279800000        1.6488800000       11.5000800000    0   0   0
Al               4.2839300000        3.2977700000       13.8319600000    0   0   0
Al               4.2839300000        0.0000000000       16.1638300000    0   0   0
O                4.8301123292        1.3185176565       28.4913400000    1   1   0
O                3.7451977801        1.9731721606       28.4913400000    1   1   0
End final coordinates



     Writing all to output data dir ./alo3.save/ :
     XML data file, charge density, pseudopotentials, collected wavefunctions

     init_run     :     13.47s CPU     13.72s WALL (       1 calls)
     electrons    :   3340.22s CPU   3368.02s WALL (       8 calls)
     update_pot   :      3.62s CPU      3.81s WALL (       7 calls)
     forces       :     67.68s CPU     68.56s WALL (       8 calls)

     Called by init_run:
     wfcinit      :     12.10s CPU     12.26s WALL (       1 calls)
     wfcinit:atom :      0.02s CPU      0.03s WALL (       2 calls)
     wfcinit:wfcr :     11.96s CPU     12.08s WALL (       2 calls)
     potinit      :      0.47s CPU      0.52s WALL (       1 calls)
     hinit0       :      0.53s CPU      0.55s WALL (       1 calls)

     Called by electrons:
     c_bands      :   2826.56s CPU   2849.51s WALL (     181 calls)
     sum_band     :    383.15s CPU    386.36s WALL (     181 calls)
     v_of_rho     :     31.43s CPU     31.98s WALL (     186 calls)
     v_h          :      0.76s CPU      0.78s WALL (     186 calls)
     v_xc         :     32.06s CPU     32.70s WALL (     194 calls)
     newd         :     35.11s CPU     35.39s WALL (     186 calls)
     PAW_pot      :     65.91s CPU     66.37s WALL (     193 calls)
     mix_rho      :      2.87s CPU      2.99s WALL (     181 calls)

     Called by c_bands:
     init_us_2    :     48.49s CPU     49.15s WALL (     756 calls)
     cegterg      :   2731.61s CPU   2753.66s WALL (     362 calls)

     Called by sum_band:
     sum_band:wei :      0.27s CPU      0.27s WALL (     181 calls)
     sum_band:loo :    361.89s CPU    364.87s WALL (     181 calls)
     sum_band:buf :      1.65s CPU      1.68s WALL (     362 calls)
     sum_band:ini :     20.82s CPU     21.07s WALL (     362 calls)
     sum_band:cal :    326.95s CPU    329.39s WALL (     376 calls)
     sum_band:bec :      0.36s CPU      0.36s WALL (     376 calls)
     addusdens    :     12.63s CPU     12.74s WALL (     181 calls)
                                        0.00s GPU  (     181 calls)
     addusd:skk   :      0.13s CPU      0.13s WALL (     362 calls)
                                        0.00s GPU  (     362 calls)

     Called by *egterg:
     cdiaghg      :     11.12s CPU     11.19s WALL (    1832 calls)
     cegterg:over :    111.26s CPU    111.85s WALL (    1490 calls)
     cegterg:upda :     28.96s CPU     29.18s WALL (    1490 calls)
     cegterg:last :     75.24s CPU     75.78s WALL (     787 calls)
     cdiaghg:chol :      0.41s CPU      0.42s WALL (    1832 calls)
     cdiaghg:inve :      0.06s CPU      0.06s WALL (    1832 calls)
     cdiaghg:para :      2.12s CPU      2.14s WALL (    3664 calls)
     h_psi        :   1698.96s CPU   1712.73s WALL (    1854 calls)
     s_psi        :    786.62s CPU    792.88s WALL (    1854 calls)
     g_psi        :      0.91s CPU      0.92s WALL (    1490 calls)

     Called by h_psi:
     h_psi:calbec :    792.77s CPU    798.39s WALL (    1854 calls)
     vloc_psi     :     98.36s CPU     99.66s WALL (    1854 calls)
     add_vuspsi   :    805.77s CPU    812.51s WALL (    1854 calls)

     General routines
     calbec       :   1178.29s CPU   1186.75s WALL (    2294 calls)
     fft          :     14.49s CPU     14.68s WALL (    4055 calls)
     ffts         :      0.94s CPU      0.96s WALL (     362 calls)
     fftw         :    103.24s CPU    104.60s WALL (  132636 calls)

     Parallel routines

     PAW routines
     PAW_pot      :     65.91s CPU     66.37s WALL (     193 calls)

     PWSCF        :  57m22.96s CPU  57m52.41s WALL


   This run was terminated on:  21:20:39   4Dec2025            

=------------------------------------------------------------------------------=
   JOB DONE.
=------------------------------------------------------------------------------=
