
     Program PWSCF v.7.3.1 starts on  4Dec2025 at  7:33:58 

     This program is part of the open-source Quantum ESPRESSO suite
     for quantum simulation of materials; please cite
         "P. Giannozzi et al., J. Phys.:Condens. Matter 21 395502 (2009);
         "P. Giannozzi et al., J. Phys.:Condens. Matter 29 465901 (2017);
         "P. Giannozzi et al., J. Chem. Phys. 152 154105 (2020);
          URL http://www.quantum-espresso.org", 
     in publications or presentations arising from this work. More details at
     http://www.quantum-espresso.org/quote

     Parallel version (MPI & OpenMP), running on      40 processor cores
     Number of MPI processes:                40
     Threads/MPI process:                     1

     MPI processes distributed on     1 nodes
     155682 MiB available memory on the printing compute node when the environment starts

     Reading input from topw.al5.scf.in

     Current dimensions of program PWSCF are:
     Max number of different atomic species (ntypx) = 10
     Max number of k-points (npk) =  40000
     Max angular momentum in pseudopotentials (lmaxx) =  4
     file Al.pbe-n-kjpaw_psl.1.0.0.UPF: wavefunction(s)  3S 3P renormalized
     file O.pbe-n-kjpaw_psl.1.0.0.UPF: wavefunction(s)  2S 2P renormalized

     IMPORTANT: XC functional enforced from input :
     Exchange-correlation= PBE
                           (   1   4   3   4   0   0   0)
     Any further DFT definition will be discarded
     Please, verify this is what you really want


     K-points division:     npool     =      10
     R & G space division:  proc/nbgrp/npool/nimage =       4
     Subspace diagonalization in iterative solution of the eigenvalue problem:
     one sub-group per band group will be used
     custom distributed-memory algorithm (size of sub-group:  2*  2 procs)


     Parallelization info
     --------------------
     sticks:   dense  smooth     PW     G-vecs:    dense   smooth      PW
     Min         237     237     70                41081    41081    6494
     Max         238     238     71                41092    41092    6497
     Sum         949     949    281               164345   164345   25981

     Using Slab Decomposition



     bravais-lattice index     =            0
     lattice parameter (alat)  =      10.7939  a.u.
     unit-cell volume          =    7626.9344 (a.u.)^3
     number of atoms/cell      =           30
     number of atomic types    =            2
     number of electrons       =        96.00 (up:  49.00, down:  47.00)
     number of Kohn-Sham states=           59
     kinetic-energy cutoff     =      29.4000  Ry
     charge density cutoff     =     117.6000  Ry
     scf convergence threshold =      1.0E-08
     mixing beta               =       0.7000
     number of iterations used =            8  plain     mixing
     energy convergence thresh.=      1.0E-04
     force convergence thresh. =      1.0E-03
     Exchange-correlation= PBE
                           (   1   4   3   4   0   0   0)
     nstep                     =          100


     celldm(1)=  10.793946  celldm(2)=   0.000000  celldm(3)=   0.000000
     celldm(4)=   0.000000  celldm(5)=   0.000000  celldm(6)=   0.000000

     crystal axes: (cart. coord. in units of alat)
               a(1) = (   1.000000   0.000000   0.000000 )  
               a(2) = (   0.000000   0.866026   0.000000 )  
               a(3) = (   0.000000   0.000000   7.002911 )  

     reciprocal axes: (cart. coord. in units 2 pi/alat)
               b(1) = (  1.000000  0.000000  0.000000 )  
               b(2) = (  0.000000  1.154700  0.000000 )  
               b(3) = (  0.000000  0.000000  0.142798 )  


     PseudoPot. # 1 for Al read from file:
     ../pseudo/Al.pbe-n-kjpaw_psl.1.0.0.UPF
     MD5 check sum: 502b6b27b9c6270cab5dd1084b96fa6d
     Pseudo is Projector augmented-wave + core cor, Zval =  3.0
     Generated using &quot;atomic&quot; code by A. Dal Corso  v.6.3
     Shape of augmentation charge: PSQ
     Using radial grid of 1135 points,  6 beta functions with: 
                l(1) =   0
                l(2) =   0
                l(3) =   1
                l(4) =   1
                l(5) =   2
                l(6) =   2
     Q(r) pseudized with 0 coefficients 


     PseudoPot. # 2 for O  read from file:
     ../pseudo/O.pbe-n-kjpaw_psl.1.0.0.UPF
     MD5 check sum: e99d9cef9b487d1ca56f5b95ecd0fd7a
     Pseudo is Projector augmented-wave + core cor, Zval =  6.0
     Generated using &quot;atomic&quot; code by A. Dal Corso  v.6.3
     Shape of augmentation charge: PSQ
     Using radial grid of 1095 points,  4 beta functions with: 
                l(1) =   0
                l(2) =   0
                l(3) =   1
                l(4) =   1
     Q(r) pseudized with 0 coefficients 


     atomic species   valence    mass     pseudopotential
     Al                3.00    26.98000     Al( 1.00)
     O                 6.00    15.99000     O ( 1.00)

     Starting magnetic structure 
     atomic species   magnetization
     Al              0.000
     O               0.000

     No symmetry found


                                    s                        frac. trans.

      isym =  1     identity                                     

 cryst.   s( 1) = (     1          0          0      )
                  (     0          1          0      )
                  (     0          0          1      )

 cart.    s( 1) = (  1.0000000  0.0000000  0.0000000 )
                  (  0.0000000  1.0000000  0.0000000 )
                  (  0.0000000  0.0000000  1.0000000 )


   Cartesian axes

     site n.     atom                  positions (alat units)
         1        Al     tau(   1) = (   0.0000000   0.7216868   4.4628399  )
         2        Al     tau(   2) = (   0.5000009   0.7216868   4.4628399  )
         3        Al     tau(   3) = (   0.2500004   0.2886740   4.4628399  )
         4        Al     tau(   4) = (   0.7499996   0.2886740   4.4628399  )
         5        Al     tau(   5) = (   1.2500004   0.0000000   4.0545929  )
         6        Al     tau(   6) = (   0.5000009   0.4330128   4.0545929  )
         7        Al     tau(   7) = (   1.0000000   0.1443370   3.6463442  )
         8        Al     tau(   8) = (   1.0000000   0.4330128   4.0545929  )
         9        Al     tau(   9) = (   0.7499996   0.0000000   4.0545929  )
        10        Al     tau(  10) = (   1.2500004   0.0000000   2.8298468  )
        11        Al     tau(  11) = (   0.7499996   0.2886740   2.0133511  )
        12        Al     tau(  12) = (   1.0000000   0.1443370   2.4215998  )
        13        Al     tau(  13) = (   0.5000009   0.1443370   3.6463442  )
        14        Al     tau(  14) = (   0.7499996   0.5773498   3.6463442  )
        15        Al     tau(  15) = (   0.2500004   0.5773498   3.6463442  )
        16        Al     tau(  16) = (   0.2500004   0.5773498   2.4215998  )
        17        Al     tau(  17) = (   0.7499996   0.2886740   3.2380955  )
        18        Al     tau(  18) = (   0.0000000   0.7216868   3.2380955  )
        19        Al     tau(  19) = (   0.0000000   0.7216868   2.0133511  )
        20        Al     tau(  20) = (   0.5000009   0.4330128   2.8298468  )
        21        Al     tau(  21) = (   0.5000009   0.7216868   3.2380955  )
        22        Al     tau(  22) = (   0.5000009   0.7216868   2.0133511  )
        23        Al     tau(  23) = (   0.5000009   0.1443370   2.4215998  )
        24        Al     tau(  24) = (   1.0000000   0.4330128   2.8298468  )
        25        Al     tau(  25) = (   0.2500004   0.2886740   3.2380955  )
        26        Al     tau(  26) = (   0.2500004   0.2886740   2.0133511  )
        27        Al     tau(  27) = (   0.7499996   0.5773498   2.4215998  )
        28        Al     tau(  28) = (   0.7499996   0.0000000   2.8298468  )
        29        O      tau(  29) = (   0.8460165   0.2314742   4.8830146  )
        30        O      tau(  30) = (   0.6548370   0.3450965   4.8830146  )

   Crystallographic axes

     site n.     atom                  positions (cryst. coord.)
         1        Al     tau(   1) = (  0.0000000  0.8333320  0.6372835  )
         2        Al     tau(   2) = (  0.5000009  0.8333320  0.6372835  )
         3        Al     tau(   3) = (  0.2500004  0.3333320  0.6372835  )
         4        Al     tau(   4) = (  0.7499996  0.3333320  0.6372835  )
         5        Al     tau(   5) = (  1.2500004  0.0000000  0.5789867  )
         6        Al     tau(   6) = (  0.5000009  0.5000000  0.5789867  )
         7        Al     tau(   7) = (  1.0000000  0.1666660  0.5206898  )
         8        Al     tau(   8) = (  1.0000000  0.5000000  0.5789867  )
         9        Al     tau(   9) = (  0.7499996  0.0000000  0.5789867  )
        10        Al     tau(  10) = (  1.2500004  0.0000000  0.4040958  )
        11        Al     tau(  11) = (  0.7499996  0.3333320  0.2875020  )
        12        Al     tau(  12) = (  1.0000000  0.1666660  0.3457990  )
        13        Al     tau(  13) = (  0.5000009  0.1666660  0.5206898  )
        14        Al     tau(  14) = (  0.7499996  0.6666660  0.5206898  )
        15        Al     tau(  15) = (  0.2500004  0.6666660  0.5206898  )
        16        Al     tau(  16) = (  0.2500004  0.6666660  0.3457990  )
        17        Al     tau(  17) = (  0.7499996  0.3333320  0.4623928  )
        18        Al     tau(  18) = (  0.0000000  0.8333320  0.4623928  )
        19        Al     tau(  19) = (  0.0000000  0.8333320  0.2875020  )
        20        Al     tau(  20) = (  0.5000009  0.5000000  0.4040958  )
        21        Al     tau(  21) = (  0.5000009  0.8333320  0.4623928  )
        22        Al     tau(  22) = (  0.5000009  0.8333320  0.2875020  )
        23        Al     tau(  23) = (  0.5000009  0.1666660  0.3457990  )
        24        Al     tau(  24) = (  1.0000000  0.5000000  0.4040958  )
        25        Al     tau(  25) = (  0.2500004  0.3333320  0.4623928  )
        26        Al     tau(  26) = (  0.2500004  0.3333320  0.2875020  )
        27        Al     tau(  27) = (  0.7499996  0.6666660  0.3457990  )
        28        Al     tau(  28) = (  0.7499996  0.0000000  0.4040958  )
        29        O      tau(  29) = (  0.8460165  0.2672834  0.6972835  )
        30        O      tau(  30) = (  0.6548370  0.3984830  0.6972835  )

     number of k points=    10  Methfessel-Paxton smearing, width (Ry)=  0.0140
                       cart. coord. in units 2pi/alat
        k(    1) = (   0.0000000   0.0000000   0.0000000), wk =   0.0625000
        k(    2) = (   0.0000000   0.2886751   0.0000000), wk =   0.1250000
        k(    3) = (   0.0000000  -0.5773502   0.0000000), wk =   0.0625000
        k(    4) = (   0.2500000   0.0000000   0.0000000), wk =   0.1250000
        k(    5) = (   0.2500000   0.2886751   0.0000000), wk =   0.1250000
        k(    6) = (   0.2500000  -0.5773502   0.0000000), wk =   0.1250000
        k(    7) = (  -0.5000000   0.0000000   0.0000000), wk =   0.0625000
        k(    8) = (  -0.5000000   0.2886751   0.0000000), wk =   0.1250000
        k(    9) = (  -0.5000000  -0.5773502   0.0000000), wk =   0.0625000
        k(   10) = (  -0.2500000   0.2886751   0.0000000), wk =   0.1250000

                       cryst. coord.
        k(    1) = (   0.0000000   0.0000000   0.0000000), wk =   0.0625000
        k(    2) = (   0.0000000   0.2500000   0.0000000), wk =   0.1250000
        k(    3) = (   0.0000000  -0.5000000   0.0000000), wk =   0.0625000
        k(    4) = (   0.2500000   0.0000000   0.0000000), wk =   0.1250000
        k(    5) = (   0.2500000   0.2500000   0.0000000), wk =   0.1250000
        k(    6) = (   0.2500000  -0.5000000   0.0000000), wk =   0.1250000
        k(    7) = (  -0.5000000   0.0000000   0.0000000), wk =   0.0625000
        k(    8) = (  -0.5000000   0.2500000   0.0000000), wk =   0.1250000
        k(    9) = (  -0.5000000  -0.5000000   0.0000000), wk =   0.0625000
        k(   10) = (  -0.2500000   0.2500000   0.0000000), wk =   0.1250000

     Dense  grid:   164345 G-vectors     FFT dimensions: (  40,  36, 270)

     Dynamical RAM for                 wfc:       4.62 MB

     Dynamical RAM for     wfc (w. buffer):      13.86 MB

     Dynamical RAM for           str. fact:       1.25 MB

     Dynamical RAM for           local pot:       0.00 MB

     Dynamical RAM for          nlocal pot:      40.72 MB

     Dynamical RAM for                qrad:       1.74 MB

     Dynamical RAM for          rho,v,vnew:       8.24 MB

     Dynamical RAM for               rhoin:       2.75 MB

     Dynamical RAM for            rho*nmix:      20.06 MB

     Dynamical RAM for           G-vectors:       2.66 MB

     Dynamical RAM for          h,s,v(r/c):       0.16 MB

     Dynamical RAM for          <psi|beta>:       0.47 MB

     Dynamical RAM for                 psi:       9.24 MB

     Dynamical RAM for                hpsi:       9.24 MB

     Dynamical RAM for                spsi:       9.24 MB

     Dynamical RAM for      wfcinit/wfcrot:      19.12 MB

     Dynamical RAM for           addusdens:      14.61 MB

     Dynamical RAM for          addusforce:      17.65 MB

     Estimated static dynamical RAM per process >      77.60 MB

     Estimated max dynamical RAM per process >     126.01 MB

     Estimated total dynamical RAM >       4.22 GB

     Check: negative core charge=   -0.000016
     Generating pointlists ...
     new r_m :   0.1792 (alat units)  1.9346 (a.u.) for type    1
     new r_m :   0.0917 (alat units)  0.9902 (a.u.) for type    2

     Initial potential from superposition of free atoms

     starting charge      95.9359, renormalised to      96.0000

     negative rho (up, down):  2.691E-02 2.691E-02
     Starting wfcs are  120 randomized atomic wfcs
     Checking if some PAW data can be deallocated... 
       PAW data deallocated on    2 nodes for type:  1
       PAW data deallocated on   38 nodes for type:  2

     total cpu time spent up to now is       11.9 secs

     Self-consistent Calculation

     iteration #  1     ecut=    29.40 Ry     beta= 0.70
     Davidson diagonalization with overlap

---- Real-time Memory Report at c_bands before calling an iterative solver
           208 MiB given to the printing process from OS
             0 MiB allocation reported by mallinfo(arena+hblkhd)
        151417 MiB available memory on the node where the printing process lives
------------------
     ethr =  1.00E-02,  avg # of iterations =  3.6

     negative rho (up, down):  3.171E-02 2.756E-02

     total cpu time spent up to now is       29.9 secs

     total energy              =   -1184.78164573 Ry
     estimated scf accuracy    <       4.52655487 Ry

     total magnetization       =     2.00 Bohr mag/cell
     absolute magnetization    =     2.02 Bohr mag/cell

     iteration #  2     ecut=    29.40 Ry     beta= 0.70
     Davidson diagonalization with overlap

---- Real-time Memory Report at c_bands before calling an iterative solver
           226 MiB given to the printing process from OS
             0 MiB allocation reported by mallinfo(arena+hblkhd)
        152024 MiB available memory on the node where the printing process lives
------------------
     ethr =  4.72E-03,  avg # of iterations = 16.3

     negative rho (up, down):  7.378E-03 6.540E-03

     total cpu time spent up to now is       91.4 secs

     total energy              =   -1121.28052318 Ry
     estimated scf accuracy    <    4969.75109488 Ry

     total magnetization       =     2.00 Bohr mag/cell
     absolute magnetization    =     2.00 Bohr mag/cell

     iteration #  3     ecut=    29.40 Ry     beta= 0.70
     Davidson diagonalization with overlap

---- Real-time Memory Report at c_bands before calling an iterative solver
           235 MiB given to the printing process from OS
             0 MiB allocation reported by mallinfo(arena+hblkhd)
        144324 MiB available memory on the node where the printing process lives
------------------
     c_bands:  1 eigenvalues not converged
     ethr =  4.72E-03,  avg # of iterations = 17.6

     negative rho (up, down):  4.153E-03 3.981E-03

     total cpu time spent up to now is      155.7 secs

     total energy              =   -1167.92063004 Ry
     estimated scf accuracy    <    1221.72654963 Ry

     total magnetization       =     2.00 Bohr mag/cell
     absolute magnetization    =     2.05 Bohr mag/cell

     iteration #  4     ecut=    29.40 Ry     beta= 0.70
     Davidson diagonalization with overlap

---- Real-time Memory Report at c_bands before calling an iterative solver
           239 MiB given to the printing process from OS
             0 MiB allocation reported by mallinfo(arena+hblkhd)
        144341 MiB available memory on the node where the printing process lives
------------------
     ethr =  4.72E-03,  avg # of iterations = 11.5

     negative rho (up, down):  5.665E-03 5.278E-03

     total cpu time spent up to now is      182.9 secs

     total energy              =   -1186.75337951 Ry
     estimated scf accuracy    <     126.63965260 Ry

     total magnetization       =     2.00 Bohr mag/cell
     absolute magnetization    =     2.05 Bohr mag/cell

     iteration #  5     ecut=    29.40 Ry     beta= 0.70
     Davidson diagonalization with overlap

---- Real-time Memory Report at c_bands before calling an iterative solver
           243 MiB given to the printing process from OS
             0 MiB allocation reported by mallinfo(arena+hblkhd)
        144333 MiB available memory on the node where the printing process lives
------------------
     ethr =  4.72E-03,  avg # of iterations =  4.2

     negative rho (up, down):  1.169E-02 1.051E-02

     total cpu time spent up to now is      199.1 secs

     total energy              =   -1188.30865366 Ry
     estimated scf accuracy    <       6.25049711 Ry

     total magnetization       =     2.00 Bohr mag/cell
     absolute magnetization    =     2.04 Bohr mag/cell

     iteration #  6     ecut=    29.40 Ry     beta= 0.70
     Davidson diagonalization with overlap

---- Real-time Memory Report at c_bands before calling an iterative solver
           247 MiB given to the printing process from OS
             0 MiB allocation reported by mallinfo(arena+hblkhd)
        151791 MiB available memory on the node where the printing process lives
------------------
     ethr =  4.72E-03,  avg # of iterations =  1.1

     negative rho (up, down):  1.367E-02 9.644E-03

     total cpu time spent up to now is      212.0 secs

     total energy              =   -1188.60779204 Ry
     estimated scf accuracy    <       0.38778482 Ry

     total magnetization       =     2.00 Bohr mag/cell
     absolute magnetization    =     2.04 Bohr mag/cell

     iteration #  7     ecut=    29.40 Ry     beta= 0.70
     Davidson diagonalization with overlap

---- Real-time Memory Report at c_bands before calling an iterative solver
           249 MiB given to the printing process from OS
             0 MiB allocation reported by mallinfo(arena+hblkhd)
        150691 MiB available memory on the node where the printing process lives
------------------
     ethr =  4.04E-04,  avg # of iterations =  6.8

     negative rho (up, down):  1.475E-02 9.964E-03

     total cpu time spent up to now is      229.7 secs

     total energy              =   -1188.62861302 Ry
     estimated scf accuracy    <       0.39161837 Ry

     total magnetization       =     2.00 Bohr mag/cell
     absolute magnetization    =     2.05 Bohr mag/cell

     iteration #  8     ecut=    29.40 Ry     beta= 0.70
     Davidson diagonalization with overlap

---- Real-time Memory Report at c_bands before calling an iterative solver
           252 MiB given to the printing process from OS
             0 MiB allocation reported by mallinfo(arena+hblkhd)
        150675 MiB available memory on the node where the printing process lives
------------------
     ethr =  4.04E-04,  avg # of iterations =  1.4

     negative rho (up, down):  1.527E-02 8.708E-03

     total cpu time spent up to now is      242.9 secs

     total energy              =   -1188.65291209 Ry
     estimated scf accuracy    <       0.32293933 Ry

     total magnetization       =     2.00 Bohr mag/cell
     absolute magnetization    =     2.08 Bohr mag/cell

     iteration #  9     ecut=    29.40 Ry     beta= 0.70
     Davidson diagonalization with overlap

---- Real-time Memory Report at c_bands before calling an iterative solver
           256 MiB given to the printing process from OS
             0 MiB allocation reported by mallinfo(arena+hblkhd)
        150696 MiB available memory on the node where the printing process lives
------------------
     ethr =  3.36E-04,  avg # of iterations =  1.2

     negative rho (up, down):  1.514E-02 8.155E-03

     total cpu time spent up to now is      256.1 secs

     total energy              =   -1188.65122536 Ry
     estimated scf accuracy    <       0.31483916 Ry

     total magnetization       =     2.00 Bohr mag/cell
     absolute magnetization    =     2.08 Bohr mag/cell

     iteration # 10     ecut=    29.40 Ry     beta= 0.70
     Davidson diagonalization with overlap

---- Real-time Memory Report at c_bands before calling an iterative solver
           257 MiB given to the printing process from OS
             0 MiB allocation reported by mallinfo(arena+hblkhd)
        150610 MiB available memory on the node where the printing process lives
------------------
     ethr =  3.28E-04,  avg # of iterations =  1.1

     negative rho (up, down):  1.704E-02 9.222E-03

     total cpu time spent up to now is      269.4 secs

     total energy              =   -1188.65952494 Ry
     estimated scf accuracy    <       0.05565468 Ry

     total magnetization       =     2.00 Bohr mag/cell
     absolute magnetization    =     2.09 Bohr mag/cell

     iteration # 11     ecut=    29.40 Ry     beta= 0.70
     Davidson diagonalization with overlap

---- Real-time Memory Report at c_bands before calling an iterative solver
           260 MiB given to the printing process from OS
             0 MiB allocation reported by mallinfo(arena+hblkhd)
        150614 MiB available memory on the node where the printing process lives
------------------
     ethr =  5.80E-05,  avg # of iterations =  5.0

     negative rho (up, down):  3.573E-02 2.268E-02

     total cpu time spent up to now is      284.2 secs

     total energy              =   -1188.65015332 Ry
     estimated scf accuracy    <       0.02506071 Ry

     total magnetization       =     2.00 Bohr mag/cell
     absolute magnetization    =     2.10 Bohr mag/cell

     iteration # 12     ecut=    29.40 Ry     beta= 0.70
     Davidson diagonalization with overlap

---- Real-time Memory Report at c_bands before calling an iterative solver
           260 MiB given to the printing process from OS
             0 MiB allocation reported by mallinfo(arena+hblkhd)
        150667 MiB available memory on the node where the printing process lives
------------------
     ethr =  2.61E-05,  avg # of iterations =  6.0

     negative rho (up, down):  4.032E-02 2.712E-02

     total cpu time spent up to now is      301.3 secs

     total energy              =   -1188.64939220 Ry
     estimated scf accuracy    <       0.14977266 Ry

     total magnetization       =     2.00 Bohr mag/cell
     absolute magnetization    =     2.11 Bohr mag/cell

     iteration # 13     ecut=    29.40 Ry     beta= 0.70
     Davidson diagonalization with overlap

---- Real-time Memory Report at c_bands before calling an iterative solver
           260 MiB given to the printing process from OS
             0 MiB allocation reported by mallinfo(arena+hblkhd)
        150555 MiB available memory on the node where the printing process lives
------------------
     ethr =  2.61E-05,  avg # of iterations =  3.5

     negative rho (up, down):  4.013E-02 2.768E-02

     total cpu time spent up to now is      315.7 secs

     total energy              =   -1188.65106124 Ry
     estimated scf accuracy    <       0.07381559 Ry

     total magnetization       =     2.00 Bohr mag/cell
     absolute magnetization    =     2.12 Bohr mag/cell

     iteration # 14     ecut=    29.40 Ry     beta= 0.70
     Davidson diagonalization with overlap

---- Real-time Memory Report at c_bands before calling an iterative solver
           260 MiB given to the printing process from OS
             0 MiB allocation reported by mallinfo(arena+hblkhd)
        150585 MiB available memory on the node where the printing process lives
------------------
     ethr =  2.61E-05,  avg # of iterations =  2.0

     negative rho (up, down):  4.156E-02 2.846E-02

     total cpu time spent up to now is      329.6 secs

     total energy              =   -1188.65248344 Ry
     estimated scf accuracy    <       0.03930316 Ry

     total magnetization       =     2.00 Bohr mag/cell
     absolute magnetization    =     2.11 Bohr mag/cell

     iteration # 15     ecut=    29.40 Ry     beta= 0.70
     Davidson diagonalization with overlap

---- Real-time Memory Report at c_bands before calling an iterative solver
           260 MiB given to the printing process from OS
             0 MiB allocation reported by mallinfo(arena+hblkhd)
        150630 MiB available memory on the node where the printing process lives
------------------
     ethr =  2.61E-05,  avg # of iterations =  1.0

     negative rho (up, down):  4.257E-02 2.938E-02

     total cpu time spent up to now is      342.8 secs

     total energy              =   -1188.65387430 Ry
     estimated scf accuracy    <       0.01145465 Ry

     total magnetization       =     2.00 Bohr mag/cell
     absolute magnetization    =     2.11 Bohr mag/cell

     iteration # 16     ecut=    29.40 Ry     beta= 0.70
     Davidson diagonalization with overlap

---- Real-time Memory Report at c_bands before calling an iterative solver
           260 MiB given to the printing process from OS
             0 MiB allocation reported by mallinfo(arena+hblkhd)
        150640 MiB available memory on the node where the printing process lives
------------------
     ethr =  1.19E-05,  avg # of iterations =  1.2

     negative rho (up, down):  4.270E-02 2.965E-02

     total cpu time spent up to now is      356.1 secs

     total energy              =   -1188.65411641 Ry
     estimated scf accuracy    <       0.00077504 Ry

     total magnetization       =     2.00 Bohr mag/cell
     absolute magnetization    =     2.11 Bohr mag/cell

     iteration # 17     ecut=    29.40 Ry     beta= 0.70
     Davidson diagonalization with overlap

---- Real-time Memory Report at c_bands before calling an iterative solver
           260 MiB given to the printing process from OS
             0 MiB allocation reported by mallinfo(arena+hblkhd)
        150629 MiB available memory on the node where the printing process lives
------------------
     ethr =  8.07E-07,  avg # of iterations = 12.1

     negative rho (up, down):  4.275E-02 2.966E-02

     total cpu time spent up to now is      375.6 secs

     total energy              =   -1188.65419200 Ry
     estimated scf accuracy    <       0.00027412 Ry

     total magnetization       =     2.00 Bohr mag/cell
     absolute magnetization    =     2.11 Bohr mag/cell

     iteration # 18     ecut=    29.40 Ry     beta= 0.70
     Davidson diagonalization with overlap

---- Real-time Memory Report at c_bands before calling an iterative solver
           261 MiB given to the printing process from OS
             0 MiB allocation reported by mallinfo(arena+hblkhd)
        150582 MiB available memory on the node where the printing process lives
------------------
     ethr =  2.86E-07,  avg # of iterations =  2.9

     negative rho (up, down):  4.285E-02 2.977E-02

     total cpu time spent up to now is      390.5 secs

     total energy              =   -1188.65422172 Ry
     estimated scf accuracy    <       0.00007593 Ry

     total magnetization       =     2.00 Bohr mag/cell
     absolute magnetization    =     2.11 Bohr mag/cell

     iteration # 19     ecut=    29.40 Ry     beta= 0.70
     Davidson diagonalization with overlap

---- Real-time Memory Report at c_bands before calling an iterative solver
           261 MiB given to the printing process from OS
             0 MiB allocation reported by mallinfo(arena+hblkhd)
        150570 MiB available memory on the node where the printing process lives
------------------
     ethr =  7.91E-08,  avg # of iterations =  3.5

     negative rho (up, down):  4.283E-02 2.977E-02

     total cpu time spent up to now is      404.8 secs

     total energy              =   -1188.65422828 Ry
     estimated scf accuracy    <       0.00003257 Ry

     total magnetization       =     2.00 Bohr mag/cell
     absolute magnetization    =     2.11 Bohr mag/cell

     iteration # 20     ecut=    29.40 Ry     beta= 0.70
     Davidson diagonalization with overlap

---- Real-time Memory Report at c_bands before calling an iterative solver
           261 MiB given to the printing process from OS
             0 MiB allocation reported by mallinfo(arena+hblkhd)
        150595 MiB available memory on the node where the printing process lives
------------------
     ethr =  3.39E-08,  avg # of iterations =  3.5

     negative rho (up, down):  4.285E-02 2.980E-02

     total cpu time spent up to now is      419.6 secs

     total energy              =   -1188.65423026 Ry
     estimated scf accuracy    <       0.00005817 Ry

     total magnetization       =     2.00 Bohr mag/cell
     absolute magnetization    =     2.11 Bohr mag/cell

     iteration # 21     ecut=    29.40 Ry     beta= 0.70
     Davidson diagonalization with overlap

---- Real-time Memory Report at c_bands before calling an iterative solver
           261 MiB given to the printing process from OS
             0 MiB allocation reported by mallinfo(arena+hblkhd)
        151567 MiB available memory on the node where the printing process lives
------------------
     ethr =  3.39E-08,  avg # of iterations =  1.5

     negative rho (up, down):  4.286E-02 2.980E-02

     total cpu time spent up to now is      432.4 secs

     total energy              =   -1188.65423297 Ry
     estimated scf accuracy    <       0.00000434 Ry

     total magnetization       =     2.00 Bohr mag/cell
     absolute magnetization    =     2.11 Bohr mag/cell

     iteration # 22     ecut=    29.40 Ry     beta= 0.70
     Davidson diagonalization with overlap

---- Real-time Memory Report at c_bands before calling an iterative solver
           261 MiB given to the printing process from OS
             0 MiB allocation reported by mallinfo(arena+hblkhd)
        151874 MiB available memory on the node where the printing process lives
------------------
     ethr =  4.53E-09,  avg # of iterations =  4.8

     negative rho (up, down):  4.287E-02 2.981E-02

     total cpu time spent up to now is      448.0 secs

     total energy              =   -1188.65423366 Ry
     estimated scf accuracy    <       0.00000115 Ry

     total magnetization       =     2.00 Bohr mag/cell
     absolute magnetization    =     2.11 Bohr mag/cell

     iteration # 23     ecut=    29.40 Ry     beta= 0.70
     Davidson diagonalization with overlap

---- Real-time Memory Report at c_bands before calling an iterative solver
           261 MiB given to the printing process from OS
             0 MiB allocation reported by mallinfo(arena+hblkhd)
        151839 MiB available memory on the node where the printing process lives
------------------
     ethr =  1.19E-09,  avg # of iterations =  4.0

     negative rho (up, down):  4.286E-02 2.981E-02

     total cpu time spent up to now is      463.2 secs

     total energy              =   -1188.65423382 Ry
     estimated scf accuracy    <       0.00000096 Ry

     total magnetization       =     2.00 Bohr mag/cell
     absolute magnetization    =     2.11 Bohr mag/cell

     iteration # 24     ecut=    29.40 Ry     beta= 0.70
     Davidson diagonalization with overlap

---- Real-time Memory Report at c_bands before calling an iterative solver
           261 MiB given to the printing process from OS
             0 MiB allocation reported by mallinfo(arena+hblkhd)
        151798 MiB available memory on the node where the printing process lives
------------------
     ethr =  1.00E-09,  avg # of iterations =  1.0

     negative rho (up, down):  4.287E-02 2.982E-02

     total cpu time spent up to now is      475.8 secs

     total energy              =   -1188.65423381 Ry
     estimated scf accuracy    <       0.00000007 Ry

     total magnetization       =     2.00 Bohr mag/cell
     absolute magnetization    =     2.11 Bohr mag/cell

     iteration # 25     ecut=    29.40 Ry     beta= 0.70
     Davidson diagonalization with overlap

---- Real-time Memory Report at c_bands before calling an iterative solver
           261 MiB given to the printing process from OS
             0 MiB allocation reported by mallinfo(arena+hblkhd)
        151713 MiB available memory on the node where the printing process lives
------------------
     ethr =  7.36E-11,  avg # of iterations =  5.1

     negative rho (up, down):  4.287E-02 2.982E-02

     total cpu time spent up to now is      493.4 secs

     total energy              =   -1188.65423384 Ry
     estimated scf accuracy    <       0.00000004 Ry

     total magnetization       =     2.00 Bohr mag/cell
     absolute magnetization    =     2.11 Bohr mag/cell

     iteration # 26     ecut=    29.40 Ry     beta= 0.70
     Davidson diagonalization with overlap

---- Real-time Memory Report at c_bands before calling an iterative solver
           261 MiB given to the printing process from OS
             0 MiB allocation reported by mallinfo(arena+hblkhd)
        151760 MiB available memory on the node where the printing process lives
------------------
     ethr =  4.29E-11,  avg # of iterations =  1.5

     negative rho (up, down):  4.287E-02 2.982E-02

     Magnetic moment per site  (integrated on atomic sphere of radius R)
     atom   1 (R=0.179)  charge=  1.0509  magn=  0.0121
     atom   2 (R=0.179)  charge=  1.0509  magn=  0.0092
     atom   3 (R=0.179)  charge=  1.0496  magn=  0.0081
     atom   4 (R=0.179)  charge=  1.0343  magn=  0.0035
     atom   5 (R=0.179)  charge=  1.1014  magn=  0.0091
     atom   6 (R=0.179)  charge=  1.1001  magn=  0.0091
     atom   7 (R=0.179)  charge=  1.1006  magn=  0.0077
     atom   8 (R=0.179)  charge=  1.1018  magn=  0.0076
     atom   9 (R=0.179)  charge=  1.1024  magn=  0.0090
     atom  10 (R=0.179)  charge=  1.1003  magn=  0.0074
     atom  11 (R=0.179)  charge=  1.0543  magn=  0.0065
     atom  12 (R=0.179)  charge=  1.1024  magn=  0.0071
     atom  13 (R=0.179)  charge=  1.1016  magn=  0.0062
     atom  14 (R=0.179)  charge=  1.1014  magn=  0.0078
     atom  15 (R=0.179)  charge=  1.1013  magn=  0.0066
     atom  16 (R=0.179)  charge=  1.1025  magn=  0.0091
     atom  17 (R=0.179)  charge=  1.1003  magn=  0.0086
     atom  18 (R=0.179)  charge=  1.0985  magn=  0.0127
     atom  19 (R=0.179)  charge=  1.0534  magn=  0.0108
     atom  20 (R=0.179)  charge=  1.1001  magn=  0.0069
     atom  21 (R=0.179)  charge=  1.0989  magn=  0.0124
     atom  22 (R=0.179)  charge=  1.0536  magn=  0.0099
     atom  23 (R=0.179)  charge=  1.1019  magn=  0.0082
     atom  24 (R=0.179)  charge=  1.1002  magn=  0.0069
     atom  25 (R=0.179)  charge=  1.0998  magn=  0.0099
     atom  26 (R=0.179)  charge=  1.0537  magn=  0.0084
     atom  27 (R=0.179)  charge=  1.1021  magn=  0.0091
     atom  28 (R=0.179)  charge=  1.0995  magn=  0.0072
     atom  29 (R=0.092)  charge=  3.1542  magn=  0.3948
     atom  30 (R=0.092)  charge=  3.1551  magn=  0.3984

     total cpu time spent up to now is      506.3 secs

     End of self-consistent calculation

 ------ SPIN UP ------------


          k = 0.0000 0.0000 0.0000 ( 20545 PWs)   bands (ev):

   -25.7277 -14.8511 -10.3635  -9.9854  -9.4082  -8.5927  -7.6674  -7.0994
    -6.7534  -6.7418  -6.0271  -5.8988  -5.8926  -5.5270  -5.5173  -4.9587
    -4.9485  -4.5658  -4.4460  -4.4418  -4.1456  -4.1290  -4.1027  -4.0465
    -3.5514  -3.4880  -3.1221  -3.1140  -3.0273  -2.7603  -2.7247  -1.9413
    -1.8879  -1.8642  -1.3486  -1.2066  -0.9051  -0.8436  -0.5549  -0.3809
    -0.2337  -0.2045  -0.2030  -0.1916  -0.1852  -0.1301   0.0599   0.0993
     0.3182   0.3481   0.6415   0.7452   0.7507   1.0395   1.0617   1.1934
     1.2761   1.3751   1.3925

     occupation numbers 
     1.0000   1.0000   1.0000   1.0000   1.0000   1.0000   1.0000   1.0000
     1.0000   1.0000   1.0000   1.0000   1.0000   1.0000   1.0000   1.0000
     1.0000   1.0000   1.0000   1.0000   1.0000   1.0000   1.0000   1.0000
     1.0000   1.0000   1.0000   1.0000   1.0000   1.0000   1.0000   1.0000
     1.0000   1.0000   1.0000   1.0000   1.0000   1.0000   1.0000   1.0000
     1.0000   1.0000   1.0000   1.0000   1.0000   1.0000   1.0000   1.0000
     1.0040   1.0070   0.8698   0.4622   0.4378  -0.0235  -0.0183  -0.0018
    -0.0002  -0.0000  -0.0000

          k = 0.0000 0.2887 0.0000 ( 20546 PWs)   bands (ev):

   -25.7273 -14.8527  -9.9860  -9.6094  -9.0357  -8.2336  -7.4472  -7.0092
    -6.9464  -6.8194  -6.7018  -6.5877  -6.0313  -5.6972  -5.5337  -5.5293
    -5.2031  -5.1634  -5.1529  -4.5983  -4.5889  -4.2324  -4.1257  -3.7927
    -3.7719  -2.9211  -2.8157  -2.8078  -2.6996  -2.6168  -2.6009  -2.2982
    -2.2919  -1.9080  -1.8832  -1.5858  -1.4993  -1.4499  -1.2288  -0.9442
    -0.8914  -0.8171  -0.7609  -0.6722  -0.4638  -0.1666   0.1741   0.2169
     0.2605   0.2900   0.3929   0.6398   1.0110   1.3671   1.4331   1.5213
     1.5773   1.6507   2.0332

     occupation numbers 
     1.0000   1.0000   1.0000   1.0000   1.0000   1.0000   1.0000   1.0000
     1.0000   1.0000   1.0000   1.0000   1.0000   1.0000   1.0000   1.0000
     1.0000   1.0000   1.0000   1.0000   1.0000   1.0000   1.0000   1.0000
     1.0000   1.0000   1.0000   1.0000   1.0000   1.0000   1.0000   1.0000
     1.0000   1.0000   1.0000   1.0000   1.0000   1.0000   1.0000   1.0000
     1.0000   1.0000   1.0000   1.0000   1.0000   1.0000   1.0001   1.0004
     1.0012   1.0022   1.0142   0.8747  -0.0302  -0.0000  -0.0000  -0.0000
    -0.0000  -0.0000  -0.0000

          k = 0.0000-0.5774 0.0000 ( 20588 PWs)   bands (ev):

   -25.7278 -14.8550  -8.8609  -8.8596  -8.4977  -8.4829  -7.9727  -7.9054
    -7.4184  -7.1038  -6.9433  -6.7975  -6.6906  -5.9704  -5.8478  -4.7064
    -4.6025  -4.4504  -4.4441  -4.4421  -4.4415  -4.1128  -4.1020  -4.0506
    -4.0472  -3.5598  -3.5523  -3.4945  -3.4831  -3.2121  -3.0915  -2.7746
    -2.7551  -2.7429  -2.7212  -1.9189  -1.8719  -1.7677  -1.6458  -1.3331
    -1.2762  -0.8262  -0.6271  -0.3079  -0.2382  -0.2010  -0.0753   0.1162
     0.2186   1.1200   1.2038   1.2612   1.3719   1.7932   1.9419   2.4122
     2.5155   2.6008   2.7128

     occupation numbers 
     1.0000   1.0000   1.0000   1.0000   1.0000   1.0000   1.0000   1.0000
     1.0000   1.0000   1.0000   1.0000   1.0000   1.0000   1.0000   1.0000
     1.0000   1.0000   1.0000   1.0000   1.0000   1.0000   1.0000   1.0000
     1.0000   1.0000   1.0000   1.0000   1.0000   1.0000   1.0000   1.0000
     1.0000   1.0000   1.0000   1.0000   1.0000   1.0000   1.0000   1.0000
     1.0000   1.0000   1.0000   1.0000   1.0000   1.0000   1.0000   1.0000
     1.0004  -0.0077  -0.0014  -0.0003  -0.0000  -0.0000  -0.0000  -0.0000
    -0.0000  -0.0000  -0.0000

          k = 0.2500 0.0000 0.0000 ( 20445 PWs)   bands (ev):

   -25.7271 -14.8528 -10.0802  -9.7030  -9.1280  -8.3209  -7.8367  -7.5324
    -7.4202  -7.0012  -6.8958  -6.7316  -6.6706  -6.0263  -5.7692  -4.9567
    -4.3037  -4.1755  -4.1708  -3.8409  -3.7753  -3.6943  -3.4528  -3.2858
    -3.2170  -3.0930  -2.8146  -2.5535  -2.5009  -2.4609  -2.2150  -2.0442
    -2.0335  -1.8226  -1.6659  -1.6434  -1.6210  -1.2024  -1.1325  -1.1064
    -1.0207  -0.9666  -0.8441  -0.7200  -0.5272  -0.3522  -0.0870   0.0035
     0.0868   0.3479   0.8809   0.9829   1.2008   1.3389   1.4133   1.4777
     1.9830   2.2464   2.2730

     occupation numbers 
     1.0000   1.0000   1.0000   1.0000   1.0000   1.0000   1.0000   1.0000
     1.0000   1.0000   1.0000   1.0000   1.0000   1.0000   1.0000   1.0000
     1.0000   1.0000   1.0000   1.0000   1.0000   1.0000   1.0000   1.0000
     1.0000   1.0000   1.0000   1.0000   1.0000   1.0000   1.0000   1.0000
     1.0000   1.0000   1.0000   1.0000   1.0000   1.0000   1.0000   1.0000
     1.0000   1.0000   1.0000   1.0000   1.0000   1.0000   1.0000   1.0000
     1.0000   1.0070   0.0217  -0.0348  -0.0015  -0.0000  -0.0000  -0.0000
    -0.0000  -0.0000  -0.0000

          k = 0.2500 0.2887 0.0000 ( 20544 PWs)   bands (ev):

   -25.7274 -14.8557  -9.7037  -9.3286  -8.7589  -7.9762  -7.4686  -7.3364
    -7.0848  -6.8416  -6.8174  -6.7173  -6.6130  -6.4632  -6.3319  -5.7668
    -5.6674  -5.4276  -4.9383  -4.6051  -4.5323  -4.1646  -3.9567  -3.8718
    -3.6037  -3.3518  -3.1028  -2.8246  -2.7149  -2.6618  -2.4502  -2.2006
    -1.9170  -1.8745  -1.3682  -1.3308  -0.9687  -0.8430  -0.7708  -0.6360
    -0.5397  -0.4520  -0.3387  -0.1398  -0.0351   0.0956   0.2507   0.5363
     0.7781   0.8670   0.8901   0.9217   1.2305   1.2735   1.4850   1.5516
     1.6876   1.8720   2.1807

     occupation numbers 
     1.0000   1.0000   1.0000   1.0000   1.0000   1.0000   1.0000   1.0000
     1.0000   1.0000   1.0000   1.0000   1.0000   1.0000   1.0000   1.0000
     1.0000   1.0000   1.0000   1.0000   1.0000   1.0000   1.0000   1.0000
     1.0000   1.0000   1.0000   1.0000   1.0000   1.0000   1.0000   1.0000
     1.0000   1.0000   1.0000   1.0000   1.0000   1.0000   1.0000   1.0000
     1.0000   1.0000   1.0000   1.0000   1.0000   1.0000   1.0009   1.0297
     0.3206   0.0457   0.0085  -0.0219  -0.0008  -0.0002  -0.0000  -0.0000
    -0.0000  -0.0000  -0.0000

          k = 0.2500-0.5774 0.0000 ( 20558 PWs)   bands (ev):

   -25.7275 -14.8578  -8.5813  -8.5794  -8.2229  -8.2036  -7.7276  -7.6285
    -7.2907  -6.9151  -6.8343  -6.7073  -6.5839  -6.3569  -6.3493  -5.9842
    -5.9703  -5.7024  -5.6094  -5.4129  -5.3837  -4.5942  -4.5776  -4.4363
    -4.3345  -3.5540  -3.5249  -2.9462  -2.8344  -2.3762  -2.3410  -2.0000
    -1.9968  -1.7491  -1.7365  -1.5254  -1.3920  -1.2614  -1.2100  -0.8330
    -0.6661  -0.5047  -0.3207  -0.0522  -0.0346   0.3257   0.4519   0.6978
     0.8004   0.8982   0.9070   2.0142   2.0488   2.0705   2.1891   2.5229
     2.6363   2.9631   3.0489

     occupation numbers 
     1.0000   1.0000   1.0000   1.0000   1.0000   1.0000   1.0000   1.0000
     1.0000   1.0000   1.0000   1.0000   1.0000   1.0000   1.0000   1.0000
     1.0000   1.0000   1.0000   1.0000   1.0000   1.0000   1.0000   1.0000
     1.0000   1.0000   1.0000   1.0000   1.0000   1.0000   1.0000   1.0000
     1.0000   1.0000   1.0000   1.0000   1.0000   1.0000   1.0000   1.0000
     1.0000   1.0000   1.0000   1.0000   1.0000   1.0047   1.0279   0.6688
     0.2335  -0.0013  -0.0103  -0.0000  -0.0000  -0.0000  -0.0000  -0.0000
    -0.0000  -0.0000  -0.0000

          k =-0.5000 0.0000 0.0000 ( 20498 PWs)   bands (ev):

   -25.7276 -14.8564  -9.2358  -9.2327  -8.8674  -8.8535  -8.3188  -8.2709
    -7.6316  -7.4352  -7.1197  -6.7632  -6.7539  -6.3459  -6.1668  -5.0799
    -4.9485  -3.5838  -3.4488  -3.3680  -3.3653  -3.3616  -3.3612  -3.0429
    -3.0372  -2.9672  -2.9659  -2.4948  -2.4928  -2.4178  -2.4118  -2.1389
    -1.9767  -1.7268  -1.7085  -1.6884  -1.6805  -0.9368  -0.9054  -0.8018
    -0.6640  -0.5689  -0.5365  -0.2732  -0.2342  -0.2224  -0.1948  -0.1212
    -0.0794   0.2178   0.2455   0.5096   0.5378   1.0295   1.0605   1.5790
     1.6190   1.6410   1.7763

     occupation numbers 
     1.0000   1.0000   1.0000   1.0000   1.0000   1.0000   1.0000   1.0000
     1.0000   1.0000   1.0000   1.0000   1.0000   1.0000   1.0000   1.0000
     1.0000   1.0000   1.0000   1.0000   1.0000   1.0000   1.0000   1.0000
     1.0000   1.0000   1.0000   1.0000   1.0000   1.0000   1.0000   1.0000
     1.0000   1.0000   1.0000   1.0000   1.0000   1.0000   1.0000   1.0000
     1.0000   1.0000   1.0000   1.0000   1.0000   1.0000   1.0000   1.0000
     1.0000   1.0004   1.0008   1.0353   1.0291  -0.0260  -0.0185  -0.0000
    -0.0000  -0.0000  -0.0000

          k =-0.5000 0.2887 0.0000 ( 20554 PWs)   bands (ev):

   -25.7278 -14.8585  -8.8619  -8.8582  -8.4980  -8.4801  -7.9688  -7.8992
    -7.4098  -7.0717  -6.9522  -6.7997  -6.6903  -5.9857  -5.9004  -5.8977
    -5.8529  -5.5269  -5.5127  -4.9587  -4.9416  -4.7174  -4.6053  -4.1431
    -4.1142  -3.2265  -3.1384  -3.1071  -3.0285  -1.9188  -1.8736  -1.7937
    -1.6131  -0.8449  -0.7377  -0.6030  -0.4050  -0.2044  -0.2025  -0.1868
    -0.1785   0.0543   0.0632   0.1296   0.1936   0.3228   0.3484   0.7401
     0.7605   1.0434   1.0677   1.3196   1.3907   1.5414   1.5531   1.7204
     1.7337   1.8111   1.9574

     occupation numbers 
     1.0000   1.0000   1.0000   1.0000   1.0000   1.0000   1.0000   1.0000
     1.0000   1.0000   1.0000   1.0000   1.0000   1.0000   1.0000   1.0000
     1.0000   1.0000   1.0000   1.0000   1.0000   1.0000   1.0000   1.0000
     1.0000   1.0000   1.0000   1.0000   1.0000   1.0000   1.0000   1.0000
     1.0000   1.0000   1.0000   1.0000   1.0000   1.0000   1.0000   1.0000
     1.0000   1.0000   1.0000   1.0000   1.0002   1.0044   1.0071   0.4848
     0.3949  -0.0226  -0.0169  -0.0001  -0.0000  -0.0000  -0.0000  -0.0000
    -0.0000  -0.0000  -0.0000

          k =-0.5000-0.5774 0.0000 ( 20556 PWs)   bands (ev):

   -25.7272 -14.8606  -7.7642  -7.7434  -7.7418  -7.7397  -7.5370  -7.3765
    -7.3676  -7.3639  -7.2311  -6.9254  -6.8523  -6.7873  -6.7791  -6.6983
    -6.6029  -5.9576  -5.9571  -5.9312  -5.8309  -4.8975  -4.8974  -4.8750
    -4.7705  -3.6449  -3.6390  -3.6150  -3.4997  -2.1976  -2.1685  -2.1346
    -1.9896  -0.9456  -0.8634  -0.7192  -0.6553  -0.5404  -0.2350   0.6615
     0.6749   0.7243   0.7302   1.0808   1.0932   1.1190   1.1728   1.5498
     1.5541   1.5665   1.6920   1.9707   1.9764   1.9793   1.9938   2.6336
     2.6412   2.6438   2.6925

     occupation numbers 
     1.0000   1.0000   1.0000   1.0000   1.0000   1.0000   1.0000   1.0000
     1.0000   1.0000   1.0000   1.0000   1.0000   1.0000   1.0000   1.0000
     1.0000   1.0000   1.0000   1.0000   1.0000   1.0000   1.0000   1.0000
     1.0000   1.0000   1.0000   1.0000   1.0000   1.0000   1.0000   1.0000
     1.0000   1.0000   1.0000   1.0000   1.0000   1.0000   1.0000   0.8069
     0.7592   0.5547   0.5287  -0.0142  -0.0118  -0.0078  -0.0028  -0.0000
    -0.0000  -0.0000  -0.0000  -0.0000  -0.0000  -0.0000  -0.0000  -0.0000
    -0.0000  -0.0000  -0.0000

          k =-0.2500 0.2887 0.0000 ( 20544 PWs)   bands (ev):

   -25.7274 -14.8554  -9.7035  -9.3274  -8.7555  -7.9669  -7.4734  -7.3490
    -7.0790  -6.8382  -6.8203  -6.7184  -6.6430  -6.4480  -6.3284  -5.7595
    -5.6629  -5.4399  -4.9285  -4.5944  -4.5332  -4.1673  -3.9738  -3.8579
    -3.6109  -3.3369  -3.1035  -2.8377  -2.7141  -2.6497  -2.4669  -2.2025
    -1.9035  -1.8852  -1.3843  -1.2998  -0.9682  -0.8702  -0.7643  -0.5808
    -0.5405  -0.4936  -0.2889  -0.1722  -0.0620   0.0832   0.2541   0.5005
     0.7955   0.8728   0.8946   0.9169   1.2288   1.2711   1.4687   1.5543
     1.6938   1.8776   2.1614

     occupation numbers 
     1.0000   1.0000   1.0000   1.0000   1.0000   1.0000   1.0000   1.0000
     1.0000   1.0000   1.0000   1.0000   1.0000   1.0000   1.0000   1.0000
     1.0000   1.0000   1.0000   1.0000   1.0000   1.0000   1.0000   1.0000
     1.0000   1.0000   1.0000   1.0000   1.0000   1.0000   1.0000   1.0000
     1.0000   1.0000   1.0000   1.0000   1.0000   1.0000   1.0000   1.0000
     1.0000   1.0000   1.0000   1.0000   1.0000   1.0000   1.0010   1.0354
     0.2518   0.0352   0.0028  -0.0186  -0.0008  -0.0003  -0.0000  -0.0000
    -0.0000  -0.0000  -0.0000

 ------ SPIN DOWN ----------


          k = 0.0000 0.0000 0.0000 ( 20545 PWs)   bands (ev):

   -24.9180 -13.6818 -10.3343  -9.9573  -9.3724  -8.5503  -7.5407  -6.7396
    -6.1818  -5.8829  -5.8694  -5.7864  -5.5053  -5.4784  -5.2390  -4.9162
    -4.9109  -4.5046  -4.4167  -4.4111  -4.1095  -4.0971  -4.0691  -4.0163
    -3.5129  -3.4563  -3.0906  -3.0755  -2.9751  -2.7270  -2.6905  -1.8867
    -1.8499  -1.8313  -1.2935  -1.1599  -0.6586  -0.5930  -0.2706  -0.2119
    -0.1761  -0.1755  -0.1622  -0.1596   0.0495   0.0829   0.2804   0.3346
     0.5737   0.6754   0.7333   0.8254   0.8738   1.0783   1.1167   1.2947
     1.3517   1.4666   1.5056

     occupation numbers 
     1.0000   1.0000   1.0000   1.0000   1.0000   1.0000   1.0000   1.0000
     1.0000   1.0000   1.0000   1.0000   1.0000   1.0000   1.0000   1.0000
     1.0000   1.0000   1.0000   1.0000   1.0000   1.0000   1.0000   1.0000
     1.0000   1.0000   1.0000   1.0000   1.0000   1.0000   1.0000   1.0000
     1.0000   1.0000   1.0000   1.0000   1.0000   1.0000   1.0000   1.0000
     1.0000   1.0000   1.0000   1.0000   1.0001   1.0003   1.0157   1.0283
     0.6886   0.2551   0.0761  -0.0322  -0.0335  -0.0016  -0.0007  -0.0000
    -0.0000  -0.0000  -0.0000

          k = 0.0000 0.2887 0.0000 ( 20546 PWs)   bands (ev):

   -24.9176 -13.6839  -9.9569  -9.5810  -8.9986  -8.1829  -7.2210  -6.9740
    -6.6729  -6.5612  -6.1131  -5.9849  -5.5998  -5.5056  -5.4987  -5.3179
    -5.1425  -5.1178  -5.0983  -4.5619  -4.5522  -4.1825  -4.0724  -3.7573
    -3.7357  -2.8832  -2.7775  -2.7761  -2.6524  -2.5870  -2.5669  -2.2695
    -2.2654  -1.8656  -1.8502  -1.5370  -1.4441  -1.4124  -1.2003  -0.8668
    -0.7857  -0.7344  -0.6889  -0.1782   0.0661   0.1403   0.2219   0.2881
     0.3220   0.6238   0.7464   1.0002   1.1057   1.4057   1.4735   1.6159
     1.6564   1.7287   2.0918

     occupation numbers 
     1.0000   1.0000   1.0000   1.0000   1.0000   1.0000   1.0000   1.0000
     1.0000   1.0000   1.0000   1.0000   1.0000   1.0000   1.0000   1.0000
     1.0000   1.0000   1.0000   1.0000   1.0000   1.0000   1.0000   1.0000
     1.0000   1.0000   1.0000   1.0000   1.0000   1.0000   1.0000   1.0000
     1.0000   1.0000   1.0000   1.0000   1.0000   1.0000   1.0000   1.0000
     1.0000   1.0000   1.0000   1.0000   1.0002   1.0011   1.0062   1.0173
     1.0253   0.4715   0.0483  -0.0077  -0.0009  -0.0000  -0.0000  -0.0000
    -0.0000  -0.0000  -0.0000

          k = 0.0000-0.5774 0.0000 ( 20588 PWs)   bands (ev):

   -24.9183 -13.6865  -8.8332  -8.8284  -8.4661  -8.4528  -7.9086  -7.8675
    -7.1909  -7.0384  -6.6474  -6.1308  -5.9911  -5.6713  -5.3226  -4.6426
    -4.5388  -4.4184  -4.4161  -4.4136  -4.4112  -4.0840  -4.0766  -4.0216
    -4.0162  -3.5233  -3.5133  -3.4614  -3.4530  -3.1671  -3.0465  -2.7415
    -2.7226  -2.7057  -2.6885  -1.8655  -1.8381  -1.7172  -1.5966  -1.2864
    -1.2354  -0.3008  -0.2880  -0.2595  -0.1901   0.0635   0.2363   0.5592
     0.9359   1.1690   1.2779   1.3903   1.4855   1.8431   1.9902   2.4550
     2.5688   2.6409   2.7640

     occupation numbers 
     1.0000   1.0000   1.0000   1.0000   1.0000   1.0000   1.0000   1.0000
     1.0000   1.0000   1.0000   1.0000   1.0000   1.0000   1.0000   1.0000
     1.0000   1.0000   1.0000   1.0000   1.0000   1.0000   1.0000   1.0000
     1.0000   1.0000   1.0000   1.0000   1.0000   1.0000   1.0000   1.0000
     1.0000   1.0000   1.0000   1.0000   1.0000   1.0000   1.0000   1.0000
     1.0000   1.0000   1.0000   1.0000   1.0000   1.0002   1.0080   0.7454
    -0.0198  -0.0002  -0.0000  -0.0000  -0.0000  -0.0000  -0.0000  -0.0000
    -0.0000  -0.0000  -0.0000

          k = 0.2500 0.0000 0.0000 ( 20445 PWs)   bands (ev):

   -24.9172 -13.6843 -10.0511  -9.6748  -9.0914  -8.2732  -7.8062  -7.4435
    -7.2863  -6.8774  -6.6222  -6.1326  -5.9756  -5.6058  -5.2289  -4.8989
    -4.2476  -4.1468  -4.1402  -3.8130  -3.7460  -3.6534  -3.4237  -3.2480
    -3.1853  -3.0653  -2.7669  -2.5183  -2.4687  -2.4270  -2.1697  -2.0144
    -2.0042  -1.7811  -1.6392  -1.6139  -1.5821  -1.1573  -1.0834  -1.0304
    -0.9466  -0.9062  -0.7308  -0.4717  -0.1481  -0.0354   0.0449   0.2635
     0.6038   0.9226   0.9589   1.1183   1.2684   1.3845   1.4868   1.5659
     2.0226   2.2707   2.3051

     occupation numbers 
     1.0000   1.0000   1.0000   1.0000   1.0000   1.0000   1.0000   1.0000
     1.0000   1.0000   1.0000   1.0000   1.0000   1.0000   1.0000   1.0000
     1.0000   1.0000   1.0000   1.0000   1.0000   1.0000   1.0000   1.0000
     1.0000   1.0000   1.0000   1.0000   1.0000   1.0000   1.0000   1.0000
     1.0000   1.0000   1.0000   1.0000   1.0000   1.0000   1.0000   1.0000
     1.0000   1.0000   1.0000   1.0000   1.0000   1.0000   1.0001   1.0123
     0.5602  -0.0230  -0.0147  -0.0006  -0.0000  -0.0000  -0.0000  -0.0000
    -0.0000  -0.0000  -0.0000

          k = 0.2500 0.2887 0.0000 ( 20544 PWs)   bands (ev):

   -24.9177 -13.6875  -9.6745  -9.2999  -8.7200  -7.9120  -7.4356  -7.0871
    -6.9967  -6.6976  -6.5492  -6.4601  -6.3274  -6.0323  -5.7388  -5.6331
    -5.4094  -5.2032  -4.8906  -4.5647  -4.5021  -4.1351  -3.9080  -3.8251
    -3.5672  -3.3150  -3.0733  -2.7899  -2.6883  -2.6241  -2.4012  -2.1646
    -1.8741  -1.8354  -1.3172  -1.2805  -0.9374  -0.6288  -0.5693  -0.5173
    -0.4304  -0.2120  -0.0753   0.0716   0.2308   0.4213   0.6206   0.8129
     0.8756   0.9144   0.9839   1.1949   1.2688   1.3169   1.5362   1.5996
     1.7417   1.9139   2.2405

     occupation numbers 
     1.0000   1.0000   1.0000   1.0000   1.0000   1.0000   1.0000   1.0000
     1.0000   1.0000   1.0000   1.0000   1.0000   1.0000   1.0000   1.0000
     1.0000   1.0000   1.0000   1.0000   1.0000   1.0000   1.0000   1.0000
     1.0000   1.0000   1.0000   1.0000   1.0000   1.0000   1.0000   1.0000
     1.0000   1.0000   1.0000   1.0000   1.0000   1.0000   1.0000   1.0000
     1.0000   1.0000   1.0000   1.0002   1.0073   1.0279   0.4857  -0.0276
    -0.0333  -0.0249  -0.0101  -0.0001  -0.0000  -0.0000  -0.0000  -0.0000
    -0.0000  -0.0000  -0.0000

          k = 0.2500-0.5774 0.0000 ( 20558 PWs)   bands (ev):

   -24.9178 -13.6901  -8.5532  -8.5482  -8.1881  -8.1733  -7.6385  -7.5893
    -6.9866  -6.7627  -6.5359  -6.3309  -6.3262  -6.0892  -5.9598  -5.9275
    -5.7330  -5.5355  -5.4026  -5.3297  -5.2433  -4.5599  -4.5385  -4.3829
    -4.2714  -3.5190  -3.4849  -2.9035  -2.7901  -2.3420  -2.3019  -1.9705
    -1.9653  -1.7164  -1.7098  -1.4668  -1.3413  -1.2023  -1.1734  -0.5556
    -0.4933  -0.0659  -0.0315   0.2351   0.4097   0.5160   0.7333   0.8368
     0.8962   1.0772   1.2141   2.0547   2.0934   2.1148   2.2348   2.5684
     2.6811   2.9969   3.0839

     occupation numbers 
     1.0000   1.0000   1.0000   1.0000   1.0000   1.0000   1.0000   1.0000
     1.0000   1.0000   1.0000   1.0000   1.0000   1.0000   1.0000   1.0000
     1.0000   1.0000   1.0000   1.0000   1.0000   1.0000   1.0000   1.0000
     1.0000   1.0000   1.0000   1.0000   1.0000   1.0000   1.0000   1.0000
     1.0000   1.0000   1.0000   1.0000   1.0000   1.0000   1.0000   1.0000
     1.0000   1.0000   1.0000   1.0078   1.0321   0.8873   0.0761  -0.0346
    -0.0292  -0.0017  -0.0000  -0.0000  -0.0000  -0.0000  -0.0000  -0.0000
    -0.0000  -0.0000  -0.0000

          k =-0.5000 0.0000 0.0000 ( 20498 PWs)   bands (ev):

   -24.9179 -13.6890  -9.2061  -9.2038  -8.8361  -8.8262  -8.2690  -8.2374
    -7.4999  -7.4028  -6.7832  -6.3332  -6.2779  -5.8491  -5.2679  -5.0145
    -4.8592  -3.5477  -3.3976  -3.3402  -3.3355  -3.3314  -3.3309  -3.0156
    -3.0088  -2.9399  -2.9365  -2.4583  -2.4557  -2.3865  -2.3796  -2.0919
    -1.9257  -1.6935  -1.6719  -1.6511  -1.6505  -0.8417  -0.8328  -0.5651
    -0.5573  -0.3215  -0.2461  -0.2336  -0.1895  -0.1835  -0.0771   0.1641
     0.2250   0.3785   0.4719   0.7876   1.0287   1.1366   1.1925   1.6330
     1.6532   1.6891   1.8222

     occupation numbers 
     1.0000   1.0000   1.0000   1.0000   1.0000   1.0000   1.0000   1.0000
     1.0000   1.0000   1.0000   1.0000   1.0000   1.0000   1.0000   1.0000
     1.0000   1.0000   1.0000   1.0000   1.0000   1.0000   1.0000   1.0000
     1.0000   1.0000   1.0000   1.0000   1.0000   1.0000   1.0000   1.0000
     1.0000   1.0000   1.0000   1.0000   1.0000   1.0000   1.0000   1.0000
     1.0000   1.0000   1.0000   1.0000   1.0000   1.0000   1.0000   1.0019
     1.0066   1.0353   0.9802  -0.0103  -0.0046  -0.0004  -0.0001  -0.0000
    -0.0000  -0.0000  -0.0000

          k =-0.5000 0.2887 0.0000 ( 20554 PWs)   bands (ev):

   -24.9181 -13.6912  -8.8319  -8.8293  -8.4643  -8.4527  -7.9047  -7.8656
    -7.1783  -7.0334  -6.6472  -6.1391  -5.9680  -5.8759  -5.8691  -5.7186
    -5.5027  -5.4810  -5.2950  -4.9251  -4.8843  -4.6795  -4.5286  -4.1128
    -4.0681  -3.1917  -3.0964  -3.0740  -2.9772  -1.8767  -1.8368  -1.7445
    -1.5620  -0.6330  -0.5665  -0.1826  -0.1781  -0.1636  -0.1590  -0.0205
     0.0788   0.0875   0.2040   0.3054   0.3428   0.5827   0.7374   0.8576
     0.9954   1.0949   1.1795   1.3695   1.4830   1.5737   1.5975   1.7599
     1.7850   1.8770   1.9971

     occupation numbers 
     1.0000   1.0000   1.0000   1.0000   1.0000   1.0000   1.0000   1.0000
     1.0000   1.0000   1.0000   1.0000   1.0000   1.0000   1.0000   1.0000
     1.0000   1.0000   1.0000   1.0000   1.0000   1.0000   1.0000   1.0000
     1.0000   1.0000   1.0000   1.0000   1.0000   1.0000   1.0000   1.0000
     1.0000   1.0000   1.0000   1.0000   1.0000   1.0000   1.0000   1.0000
     1.0002   1.0003   1.0044   1.0213   1.0302   0.6512   0.0669  -0.0353
    -0.0084  -0.0011  -0.0001  -0.0000  -0.0000  -0.0000  -0.0000  -0.0000
    -0.0000  -0.0000  -0.0000

          k =-0.5000-0.5774 0.0000 ( 20556 PWs)   bands (ev):

   -24.9173 -13.6935  -7.7222  -7.7132  -7.7113  -7.7107  -7.3925  -7.3405
    -7.3383  -7.3373  -6.9787  -6.7652  -6.7574  -6.7544  -6.5623  -6.1393
    -5.9682  -5.9275  -5.9227  -5.6732  -5.3434  -4.8666  -4.8645  -4.7808
    -4.6936  -3.6136  -3.6094  -3.5671  -3.4445  -2.1504  -2.1339  -2.0925
    -1.9460  -0.7805  -0.7227  -0.6757  -0.4998   0.4355   0.6783   0.7102
     0.7612   0.8625   1.0231   1.1185   1.1887   1.2044   1.2295   1.5824
     1.6040   1.6093   1.7300   2.0024   2.0091   2.0149   2.0344   2.6647
     2.6766   2.6777   2.7272

     occupation numbers 
     1.0000   1.0000   1.0000   1.0000   1.0000   1.0000   1.0000   1.0000
     1.0000   1.0000   1.0000   1.0000   1.0000   1.0000   1.0000   1.0000
     1.0000   1.0000   1.0000   1.0000   1.0000   1.0000   1.0000   1.0000
     1.0000   1.0000   1.0000   1.0000   1.0000   1.0000   1.0000   1.0000
     1.0000   1.0000   1.0000   1.0000   1.0000   1.0198   0.2439   0.1370
     0.0224  -0.0349  -0.0051  -0.0006  -0.0001  -0.0001  -0.0000  -0.0000
    -0.0000  -0.0000  -0.0000  -0.0000  -0.0000  -0.0000  -0.0000  -0.0000
    -0.0000  -0.0000  -0.0000

          k =-0.2500 0.2887 0.0000 ( 20544 PWs)   bands (ev):

   -24.9177 -13.6874  -9.6743  -9.2989  -8.7174  -7.9058  -7.4367  -7.0991
    -6.9815  -6.6988  -6.5849  -6.4494  -6.3211  -6.0293  -5.7556  -5.6327
    -5.3703  -5.2565  -4.8623  -4.5425  -4.5039  -4.1397  -3.9312  -3.8076
    -3.5764  -3.2952  -3.0743  -2.8027  -2.6882  -2.6131  -2.4186  -2.1671
    -1.8643  -1.8370  -1.3272  -1.2640  -0.9365  -0.6612  -0.5322  -0.5046
    -0.4599  -0.1912  -0.0654   0.0830   0.2380   0.4713   0.5413   0.7658
     0.8825   0.9154   1.0119   1.1345   1.2741   1.3369   1.4991   1.6015
     1.7558   1.9307   2.1996

     occupation numbers 
     1.0000   1.0000   1.0000   1.0000   1.0000   1.0000   1.0000   1.0000
     1.0000   1.0000   1.0000   1.0000   1.0000   1.0000   1.0000   1.0000
     1.0000   1.0000   1.0000   1.0000   1.0000   1.0000   1.0000   1.0000
     1.0000   1.0000   1.0000   1.0000   1.0000   1.0000   1.0000   1.0000
     1.0000   1.0000   1.0000   1.0000   1.0000   1.0000   1.0000   1.0000
     1.0000   1.0000   1.0000   1.0003   1.0082   0.9810   0.8101   0.0155
    -0.0321  -0.0247  -0.0063  -0.0004  -0.0000  -0.0000  -0.0000  -0.0000
    -0.0000  -0.0000  -0.0000

     the spin up/dw Fermi energies are     0.7367    0.6174 ev

!    total energy              =   -1188.65423385 Ry
     total all-electron energy =    -13898.345860 Ry
     estimated scf accuracy    <          9.0E-09 Ry
     smearing contrib. (-TS)   =       0.00013358 Ry
     internal energy E=F+TS    =   -1188.65436743 Ry

     The total energy is F=E-TS. E is the sum of the following terms:
     one-electron contribution =   -4095.85210805 Ry
     hartree contribution      =    2075.06518791 Ry
     xc contribution           =     -86.45901888 Ry
     ewald contribution        =    1908.76160793 Ry
     one-center paw contrib.   =    -990.17003634 Ry
      -> PAW hartree energy AE =       1.23234172 Ry
      -> PAW hartree energy PS =      -1.22778917 Ry
      -> PAW xc energy AE      =     -36.50457219 Ry
      -> PAW xc energy PS      =       1.82324241 Ry
      -> total E_H with PAW    =    2075.06974046 Ry
      -> total E_XC with PAW   =    -121.14034866 Ry

     total magnetization       =     2.00 Bohr mag/cell
     absolute magnetization    =     2.11 Bohr mag/cell

     convergence has been achieved in  26 iterations

     negative rho (up, down):  4.287E-02 2.982E-02

     Forces acting on atoms (cartesian axes, Ry/au):

     atom    1 type  1   force =     0.00122961   -0.00067043   -0.00050258
     atom    2 type  1   force =    -0.00136648    0.00048109   -0.00012509
     atom    3 type  1   force =     0.00106196    0.00041731    0.00038460
     atom    4 type  1   force =    -0.00129274    0.00090451    0.02601142
     atom    5 type  1   force =    -0.00011711    0.00044057   -0.00790123
     atom    6 type  1   force =    -0.00008791   -0.00027170   -0.00706332
     atom    7 type  1   force =     0.00093791   -0.00018731    0.00543309
     atom    8 type  1   force =    -0.00015808    0.00010976   -0.00887904
     atom    9 type  1   force =    -0.00033713    0.00050618   -0.00954570
     atom   10 type  1   force =     0.00010123   -0.00003591   -0.00525017
     atom   11 type  1   force =     0.00008148   -0.00047989   -0.00099809
     atom   12 type  1   force =    -0.00078362   -0.00046121    0.00614217
     atom   13 type  1   force =    -0.00039680   -0.00064953    0.00537639
     atom   14 type  1   force =     0.00048554    0.00080766    0.00500059
     atom   15 type  1   force =    -0.00011770    0.00006484    0.00606203
     atom   16 type  1   force =     0.00011003    0.00038742    0.00628532
     atom   17 type  1   force =     0.00024273    0.00023017   -0.00016504
     atom   18 type  1   force =     0.00007788   -0.00084464    0.00041982
     atom   19 type  1   force =    -0.00090829    0.00075142   -0.00100408
     atom   20 type  1   force =    -0.00002899   -0.00024094   -0.00585440
     atom   21 type  1   force =     0.00000056    0.00000834    0.00035447
     atom   22 type  1   force =     0.00083095    0.00004460   -0.00125073
     atom   23 type  1   force =     0.00070217   -0.00004652    0.00659001
     atom   24 type  1   force =    -0.00014666   -0.00017366   -0.00493077
     atom   25 type  1   force =    -0.00006613    0.00017189    0.00118597
     atom   26 type  1   force =    -0.00016738   -0.00054249   -0.00025635
     atom   27 type  1   force =    -0.00025274   -0.00033711    0.00697687
     atom   28 type  1   force =    -0.00011257   -0.00002003   -0.00559135
     atom   29 type  2   force =     0.07596002   -0.04602586   -0.00787083
     atom   30 type  2   force =    -0.07548175    0.04566145   -0.00903397
     The non-local contrib.  to forces
     atom    1 type  1   force =     0.00127412    0.00295882    0.02828286
     atom    2 type  1   force =    -0.00173637   -0.00277078    0.02777228
     atom    3 type  1   force =    -0.00082760    0.00115461    0.03425983
     atom    4 type  1   force =     0.00004500   -0.00043874    0.10116687
     atom    5 type  1   force =    -0.00204649    0.00126738   -0.00362187
     atom    6 type  1   force =    -0.00156920    0.00272904   -0.00137291
     atom    7 type  1   force =     0.00033283    0.00138894    0.00259682
     atom    8 type  1   force =    -0.00037574    0.00029904   -0.00480070
     atom    9 type  1   force =     0.00006908   -0.00111750   -0.00273285
     atom   10 type  1   force =    -0.00054873   -0.00248958   -0.00095680
     atom   11 type  1   force =    -0.00023459    0.00099485   -0.02494861
     atom   12 type  1   force =     0.00014247   -0.00034994    0.00089687
     atom   13 type  1   force =     0.00056508    0.00041189   -0.00041547
     atom   14 type  1   force =     0.00027013    0.00112237    0.00187592
     atom   15 type  1   force =     0.00063205    0.00099989    0.00294110
     atom   16 type  1   force =     0.00015672    0.00009643    0.00065173
     atom   17 type  1   force =     0.00018865    0.00026720   -0.00072714
     atom   18 type  1   force =    -0.00048463   -0.00052270    0.00150478
     atom   19 type  1   force =    -0.00022287    0.00062159   -0.02584372
     atom   20 type  1   force =     0.00011845   -0.00096177   -0.00099285
     atom   21 type  1   force =     0.00079226    0.00060459    0.00155428
     atom   22 type  1   force =    -0.00030846    0.00088037   -0.02525034
     atom   23 type  1   force =     0.00010115   -0.00058639    0.00107831
     atom   24 type  1   force =    -0.00047630   -0.00155005   -0.00128331
     atom   25 type  1   force =     0.00004310   -0.00023992    0.00178400
     atom   26 type  1   force =    -0.00029556    0.00035896   -0.02425171
     atom   27 type  1   force =    -0.00018080    0.00000024    0.00013689
     atom   28 type  1   force =     0.00020243   -0.00141792   -0.00175201
     atom   29 type  2   force =    -2.06240548    1.22995825   -0.36202137
     atom   30 type  2   force =     2.05934905   -1.23056078   -0.36059836
     The ionic contribution  to forces
     atom    1 type  1   force =     0.37585584   -0.04697041   12.32252299
     atom    2 type  1   force =    -0.37574630    0.04489617   12.32444049
     atom    3 type  1   force =     0.00157014    0.00074325   12.28803346
     atom    4 type  1   force =    -0.00176793    0.00154675   10.72818750
     atom    5 type  1   force =     0.00087599   -0.01435365    7.24093118
     atom    6 type  1   force =    -0.04219388    0.01695994    7.18171924
     atom    7 type  1   force =     0.00316017   -0.00089073    2.40724071
     atom    8 type  1   force =     0.04213125    0.01803851    7.18399623
     atom    9 type  1   force =    -0.00093439   -0.02058176    7.16450901
     atom   10 type  1   force =    -0.00000614   -0.00000283   -7.16228698
     atom   11 type  1   force =     0.00000658    0.00000050  -16.69719342
     atom   12 type  1   force =     0.00000755   -0.00000012  -11.94727771
     atom   13 type  1   force =    -0.00316155   -0.00091197    2.40730692
     atom   14 type  1   force =     0.00001561    0.00096331    2.40524515
     atom   15 type  1   force =    -0.00001393    0.00083921    2.41139526
     atom   16 type  1   force =    -0.00000613    0.00000013  -11.94727614
     atom   17 type  1   force =     0.00000710    0.00000059   -2.37755050
     atom   18 type  1   force =     0.00024514   -0.00000014   -2.37720124
     atom   19 type  1   force =     0.00000554   -0.00000017  -16.69719084
     atom   20 type  1   force =    -0.00002623    0.00000197   -7.16230818
     atom   21 type  1   force =    -0.00024669    0.00000072   -2.37719996
     atom   22 type  1   force =    -0.00000669    0.00000050  -16.69719330
     atom   23 type  1   force =    -0.00000910   -0.00000013  -11.94727787
     atom   24 type  1   force =     0.00002468    0.00000198   -7.16230825
     atom   25 type  1   force =    -0.00000556    0.00000059   -2.37706638
     atom   26 type  1   force =    -0.00000543   -0.00000017  -16.69719074
     atom   27 type  1   force =     0.00000767    0.00000012  -11.94727915
     atom   28 type  1   force =     0.00000769   -0.00000288   -7.16232390
     atom   29 type  2   force =    10.30559578   -5.97182506   33.33467726
     atom   30 type  2   force =   -10.30538680    5.97154579   33.33591916
     The local contribution  to forces
     atom    1 type  1   force =    -0.37575901    0.04365809  -12.34789790
     atom    2 type  1   force =     0.37593218   -0.04193998  -12.34898144
     atom    3 type  1   force =     0.00023385   -0.00136243  -12.31789636
     atom    4 type  1   force =     0.00044468   -0.00025237  -10.79213224
     atom    5 type  1   force =     0.00085220    0.01365141   -7.24548379
     atom    6 type  1   force =     0.04351730   -0.01967949   -7.18747834
     atom    7 type  1   force =    -0.00252339   -0.00054393   -2.40414105
     atom    8 type  1   force =    -0.04194421   -0.01819414   -7.18847859
     atom    9 type  1   force =     0.00053917    0.02208347   -7.17151332
     atom   10 type  1   force =     0.00060258    0.00220230    7.15791293
     atom   11 type  1   force =     0.00028722   -0.00137780   16.71797982
     atom   12 type  1   force =    -0.00091302   -0.00014667   11.95254313
     atom   13 type  1   force =     0.00226353   -0.00010430   -2.40155704
     atom   14 type  1   force =     0.00022805   -0.00116959   -2.40192832
     atom   15 type  1   force =    -0.00066754   -0.00167605   -2.40797887
     atom   16 type  1   force =    -0.00002279    0.00029560   11.95290397
     atom   17 type  1   force =     0.00006717   -0.00001203    2.37803932
     atom   18 type  1   force =     0.00026976   -0.00037230    2.37626407
     atom   19 type  1   force =    -0.00070974    0.00018685   16.71877511
     atom   20 type  1   force =    -0.00010668    0.00061987    7.15736626
     atom   21 type  1   force =    -0.00046098   -0.00053793    2.37615351
     atom   22 type  1   force =     0.00111658   -0.00075150   16.71799895
     atom   23 type  1   force =     0.00061815    0.00047908   11.95282375
     atom   24 type  1   force =     0.00026093    0.00121552    7.15854870
     atom   25 type  1   force =    -0.00009606    0.00038559    2.37664039
     atom   26 type  1   force =     0.00010768   -0.00086763   16.71810711
     atom   27 type  1   force =    -0.00009438   -0.00033796   11.95405578
     atom   28 type  1   force =    -0.00029948    0.00125586    7.15832857
     atom   29 type  2   force =    -8.17967155    4.70306352  -32.98315989
     atom   30 type  2   force =     8.18293376   -4.70240584  -32.98698600
     The core correction contribution to forces
     atom    1 type  1   force =    -0.00013770   -0.00031881   -0.00339273
     atom    2 type  1   force =     0.00018582    0.00029395   -0.00333808
     atom    3 type  1   force =     0.00008931   -0.00011912   -0.00399380
     atom    4 type  1   force =    -0.00001298    0.00004825   -0.01119624
     atom    5 type  1   force =     0.00020430   -0.00012623    0.00031430
     atom    6 type  1   force =     0.00016134   -0.00028228    0.00010904
     atom    7 type  1   force =    -0.00002968   -0.00014260   -0.00024762
     atom    8 type  1   force =     0.00003257   -0.00003471    0.00044417
     atom    9 type  1   force =    -0.00000867    0.00012042    0.00023182
     atom   10 type  1   force =     0.00005619    0.00025305    0.00008583
     atom   11 type  1   force =     0.00002472   -0.00009891    0.00312551
     atom   12 type  1   force =    -0.00001665    0.00003446   -0.00005108
     atom   13 type  1   force =    -0.00006050   -0.00004615    0.00005773
     atom   14 type  1   force =    -0.00002584   -0.00011014   -0.00017621
     atom   15 type  1   force =    -0.00006526   -0.00009989   -0.00027986
     atom   16 type  1   force =    -0.00001469   -0.00000651   -0.00002508
     atom   17 type  1   force =    -0.00001777   -0.00002683    0.00007052
     atom   18 type  1   force =     0.00004993    0.00004904   -0.00015078
     atom   19 type  1   force =     0.00002225   -0.00005814    0.00321682
     atom   20 type  1   force =    -0.00001253    0.00009747    0.00008576
     atom   21 type  1   force =    -0.00008092   -0.00006041   -0.00015611
     atom   22 type  1   force =     0.00003142   -0.00008606    0.00315549
     atom   23 type  1   force =    -0.00000662    0.00005992   -0.00006531
     atom   24 type  1   force =     0.00004744    0.00015753    0.00011761
     atom   25 type  1   force =    -0.00000461    0.00002440   -0.00017524
     atom   26 type  1   force =     0.00002890   -0.00003494    0.00304102
     atom   27 type  1   force =     0.00001718   -0.00000100    0.00003255
     atom   28 type  1   force =    -0.00002048    0.00014354    0.00016198
     atom   29 type  2   force =     0.01245538   -0.00723186    0.00262512
     atom   30 type  2   force =    -0.01241789    0.00710415    0.00262143
     The Hubbard contrib.    to forces
     atom    1 type  1   force =     0.00000000    0.00000000    0.00000000
     atom    2 type  1   force =     0.00000000    0.00000000    0.00000000
     atom    3 type  1   force =     0.00000000    0.00000000    0.00000000
     atom    4 type  1   force =     0.00000000    0.00000000    0.00000000
     atom    5 type  1   force =     0.00000000    0.00000000    0.00000000
     atom    6 type  1   force =     0.00000000    0.00000000    0.00000000
     atom    7 type  1   force =     0.00000000    0.00000000    0.00000000
     atom    8 type  1   force =     0.00000000    0.00000000    0.00000000
     atom    9 type  1   force =     0.00000000    0.00000000    0.00000000
     atom   10 type  1   force =     0.00000000    0.00000000    0.00000000
     atom   11 type  1   force =     0.00000000    0.00000000    0.00000000
     atom   12 type  1   force =     0.00000000    0.00000000    0.00000000
     atom   13 type  1   force =     0.00000000    0.00000000    0.00000000
     atom   14 type  1   force =     0.00000000    0.00000000    0.00000000
     atom   15 type  1   force =     0.00000000    0.00000000    0.00000000
     atom   16 type  1   force =     0.00000000    0.00000000    0.00000000
     atom   17 type  1   force =     0.00000000    0.00000000    0.00000000
     atom   18 type  1   force =     0.00000000    0.00000000    0.00000000
     atom   19 type  1   force =     0.00000000    0.00000000    0.00000000
     atom   20 type  1   force =     0.00000000    0.00000000    0.00000000
     atom   21 type  1   force =     0.00000000    0.00000000    0.00000000
     atom   22 type  1   force =     0.00000000    0.00000000    0.00000000
     atom   23 type  1   force =     0.00000000    0.00000000    0.00000000
     atom   24 type  1   force =     0.00000000    0.00000000    0.00000000
     atom   25 type  1   force =     0.00000000    0.00000000    0.00000000
     atom   26 type  1   force =     0.00000000    0.00000000    0.00000000
     atom   27 type  1   force =     0.00000000    0.00000000    0.00000000
     atom   28 type  1   force =     0.00000000    0.00000000    0.00000000
     atom   29 type  2   force =     0.00000000    0.00000000    0.00000000
     atom   30 type  2   force =     0.00000000    0.00000000    0.00000000
     The SCF correction term to forces
     atom    1 type  1   force =    -0.00000093    0.00000054   -0.00000000
     atom    2 type  1   force =     0.00000090    0.00000039   -0.00000000
     atom    3 type  1   force =    -0.00000103   -0.00000034   -0.00000000
     atom    4 type  1   force =     0.00000121   -0.00000072   -0.00000000
     atom    5 type  1   force =    -0.00000040    0.00000032   -0.00003109
     atom    6 type  1   force =    -0.00000076   -0.00000025   -0.00003039
     atom    7 type  1   force =     0.00000069   -0.00000034   -0.00000581
     atom    8 type  1   force =     0.00000075   -0.00000028   -0.00003019
     atom    9 type  1   force =     0.00000040    0.00000021   -0.00003040
     atom   10 type  1   force =     0.00000000   -0.00000000    0.00000000
     atom   11 type  1   force =     0.00000000    0.00000000    0.00000000
     atom   12 type  1   force =    -0.00000000   -0.00000000    0.00000000
     atom   13 type  1   force =    -0.00000065   -0.00000034   -0.00000578
     atom   14 type  1   force =     0.00000030    0.00000037   -0.00000598
     atom   15 type  1   force =    -0.00000031    0.00000033   -0.00000564
     atom   16 type  1   force =    -0.00000000    0.00000000    0.00000000
     atom   17 type  1   force =     0.00000000   -0.00000000    0.00000000
     atom   18 type  1   force =     0.00000000    0.00000000    0.00000000
     atom   19 type  1   force =    -0.00000000   -0.00000000    0.00000000
     atom   20 type  1   force =     0.00000000    0.00000000    0.00000000
     atom   21 type  1   force =    -0.00000000    0.00000000    0.00000000
     atom   22 type  1   force =     0.00000000   -0.00000000    0.00000000
     atom   23 type  1   force =     0.00000000   -0.00000000    0.00000000
     atom   24 type  1   force =    -0.00000000    0.00000000    0.00000000
     atom   25 type  1   force =    -0.00000000   -0.00000000    0.00000000
     atom   26 type  1   force =    -0.00000000   -0.00000000    0.00000000
     atom   27 type  1   force =     0.00000000    0.00000000    0.00000000
     atom   28 type  1   force =    -0.00000000    0.00000000    0.00000000
     atom   29 type  2   force =    -0.00001141    0.00000795    0.00000000
     atom   30 type  2   force =     0.00004284   -0.00002321    0.00000000

     Total force =     0.126823     Total SCF correction =     0.000080

     BFGS Geometry Optimization
     Energy error            =      0.0E+00 Ry
     Gradient error          =      7.6E-02 Ry/Bohr

     number of scf cycles    =   1
     number of bfgs steps    =   0

     energy             new  =   -1188.6542338476 Ry

     new trust radius        =       0.0888161285 bohr
     new conv_thr            =       0.0000000100 Ry


ATOMIC_POSITIONS (angstrom)
Al               0.0006506833        4.1218552261       25.4913400000    1   1   0
Al               2.8552368911        4.1224645815       25.4913400000    1   1   0
Al               1.4285419656        1.6491008312       25.4913400000    1   1   0
Al               4.2832459112        1.6493586463       25.4913400000    1   1   0
Al               7.1398280257        0.0002331379       23.1552888480
Al               2.8559134821        2.4731862231       23.1557322500
Al               5.7124063231        0.8243408783       20.8304650649
Al               5.7118263453        2.4733880832       23.1547714139
Al               4.2837515996        0.0002678597       23.1544186334
Al               7.1398900000        0.0000000000       16.1638300000    0   0   0
Al               4.2839300000        1.6488800000       11.5000800000    0   0   0
Al               5.7119100000        0.8244400000       13.8319600000    0   0   0
Al               2.8557500209        0.8240962850       20.8304350657
Al               4.2841869374        3.2981973970       20.8302361994
Al               1.4279177157        3.2978043120       20.8307978899
Al               1.4279800000        3.2977700000       13.8319600000    0   0   0
Al               4.2839300000        1.6488800000       18.4957100000    0   0   0
Al               0.0000000000        4.1222100000       18.4957100000    0   0   0
Al               0.0000000000        4.1222100000       11.5000800000    0   0   0
Al               2.8559600000        2.4733300000       16.1638300000    0   0   0
Al               2.8559600000        4.1222100000       18.4957100000    0   0   0
Al               2.8559600000        4.1222100000       11.5000800000    0   0   0
Al               2.8559600000        0.8244400000       13.8319600000    0   0   0
Al               5.7119100000        2.4733300000       16.1638300000    0   0   0
Al               1.4279800000        1.6488800000       18.4957100000    0   0   0
Al               1.4279800000        1.6488800000       11.5000800000    0   0   0
[...]
     atom   10 type  1   force =    -0.00059414   -0.00266661   -0.00057808
     atom   11 type  1   force =    -0.00023896    0.00101179   -0.02511745
     atom   12 type  1   force =     0.00014290   -0.00021684    0.00081019
     atom   13 type  1   force =     0.00112680    0.00111167   -0.00777125
     atom   14 type  1   force =    -0.00010043    0.00017913   -0.00474002
     atom   15 type  1   force =     0.00059173    0.00110488   -0.00650694
     atom   16 type  1   force =     0.00016502    0.00023651    0.00040905
     atom   17 type  1   force =     0.00027418    0.00033933   -0.00025590
     atom   18 type  1   force =    -0.00010954   -0.00047409    0.00205223
     atom   19 type  1   force =    -0.00023948    0.00068747   -0.02591749
     atom   20 type  1   force =     0.00008246   -0.00102217   -0.00080929
     atom   21 type  1   force =     0.00063825    0.00069976    0.00218089
     atom   22 type  1   force =    -0.00026872    0.00091110   -0.02529991
     atom   23 type  1   force =     0.00010882   -0.00046724    0.00104422
     atom   24 type  1   force =    -0.00051972   -0.00161538   -0.00101318
     atom   25 type  1   force =     0.00023173    0.00017791    0.00239649
     atom   26 type  1   force =    -0.00029093    0.00045277   -0.02416017
     atom   27 type  1   force =    -0.00016153    0.00011446   -0.00004585
     atom   28 type  1   force =     0.00013835   -0.00142645   -0.00151534
     atom   29 type  2   force =    -1.95880638    1.22143475   -0.37677995
     atom   30 type  2   force =     1.95459631   -1.22209044   -0.38369011
     The ionic contribution  to forces
     atom    1 type  1   force =     0.36424356   -0.04721287   12.31170869
     atom    2 type  1   force =    -0.36413709    0.03851277   12.32049533
     atom    3 type  1   force =    -0.00863675    0.00397992   12.28348862
     atom    4 type  1   force =     0.00220241    0.00664297   10.73684478
     atom    5 type  1   force =    -0.00163532   -0.01259865    7.30410266
     atom    6 type  1   force =    -0.03651769    0.01813338    7.24704373
     atom    7 type  1   force =    -0.00171509    0.00046608    2.39193395
     atom    8 type  1   force =     0.03612027    0.01500763    7.24115736
     atom    9 type  1   force =     0.00245000   -0.02060136    7.21632357
     atom   10 type  1   force =     0.00001882   -0.00006688   -7.17076874
     atom   11 type  1   force =     0.00000644    0.00000064  -16.70568510
     atom   12 type  1   force =     0.00001256    0.00000114  -11.95577360
     atom   13 type  1   force =     0.00048909    0.00309687    2.39474210
     atom   14 type  1   force =    -0.00166797   -0.00370419    2.38837119
     atom   15 type  1   force =     0.00123857    0.00076885    2.41014570
     atom   16 type  1   force =    -0.00000429   -0.00000106  -11.95575823
     atom   17 type  1   force =    -0.00030694   -0.00010589   -2.38579312
     atom   18 type  1   force =     0.00220268   -0.00112844   -2.38618955
     atom   19 type  1   force =     0.00000598   -0.00000032  -16.70568222
     atom   20 type  1   force =    -0.00010923    0.00002846   -7.17072869
     atom   21 type  1   force =    -0.00198692   -0.00099561   -2.38611272
     atom   22 type  1   force =    -0.00000713    0.00000035  -16.70568440
     atom   23 type  1   force =    -0.00001412    0.00000124  -11.95576974
     atom   24 type  1   force =     0.00010799    0.00003817   -7.17077966
     atom   25 type  1   force =     0.00070136    0.00228644   -2.38634773
     atom   26 type  1   force =    -0.00000528   -0.00000001  -16.70568158
     atom   27 type  1   force =     0.00000583   -0.00000132  -11.95577427
     atom   28 type  1   force =    -0.00001588   -0.00000139   -7.17091964
     atom   29 type  2   force =     9.66901073   -5.84333864   33.30741066
     atom   30 type  2   force =    -9.66205659    5.84079171   33.31968066
     The local contribution  to forces
     atom    1 type  1   force =    -0.36400801    0.04365550  -12.33669518
     atom    2 type  1   force =     0.36415754   -0.03465125  -12.34457462
     atom    3 type  1   force =     0.01065987   -0.00454761  -12.31231007
     atom    4 type  1   force =    -0.00459540   -0.00475380  -10.79500265
     atom    5 type  1   force =     0.00342548    0.01120308   -7.31072843
     atom    6 type  1   force =     0.03778627   -0.02121285   -7.25555723
     atom    7 type  1   force =     0.00255681   -0.00196897   -2.38799306
     atom    8 type  1   force =    -0.03582383   -0.01498387   -7.24872857
     atom    9 type  1   force =    -0.00312414    0.02195271   -7.22671102
     atom   10 type  1   force =     0.00058379    0.00243375    7.16595839
     atom   11 type  1   force =     0.00030444   -0.00138484   16.72649319
     atom   12 type  1   force =    -0.00100937   -0.00031485   11.96129668
     atom   13 type  1   force =    -0.00139238   -0.00408256   -2.38777577
     atom   14 type  1   force =     0.00191478    0.00360839   -2.38415744
     atom   15 type  1   force =    -0.00184276   -0.00149808   -2.40479504
     atom   16 type  1   force =    -0.00004165    0.00015283   11.96176713
     atom   17 type  1   force =     0.00031221   -0.00009591    2.38630848
     atom   18 type  1   force =    -0.00167802    0.00062115    2.38520594
     atom   19 type  1   force =    -0.00076097    0.00014474   16.72721875
     atom   20 type  1   force =     0.00001708    0.00067192    7.16547769
     atom   21 type  1   force =     0.00118832    0.00035471    2.38494014
     atom   22 type  1   force =     0.00114575   -0.00074162   16.72641881
     atom   23 type  1   force =     0.00071183    0.00032581   11.96151423
     atom   24 type  1   force =     0.00018383    0.00123909    7.16665441
     atom   25 type  1   force =    -0.00081013   -0.00203890    2.38572212
     atom   26 type  1   force =     0.00009007   -0.00091264   16.72631402
     atom   27 type  1   force =    -0.00009474   -0.00040727   11.96286180
     atom   28 type  1   force =    -0.00018826    0.00123420    7.16660810
     atom   29 type  2   force =    -7.72184944    4.62837008  -32.94444181
     atom   30 type  2   force =     7.71965201   -4.62549453  -32.95207615
     The core correction contribution to forces
     atom    1 type  1   force =     0.00008032   -0.00048793   -0.00282420
     atom    2 type  1   force =    -0.00001110    0.00046397   -0.00277075
     atom    3 type  1   force =     0.00029592   -0.00012109   -0.00343274
     atom    4 type  1   force =    -0.00030966    0.00020065   -0.01085961
     atom    5 type  1   force =     0.00020473   -0.00019082   -0.00107529
     atom    6 type  1   force =     0.00013726   -0.00037985   -0.00128410
     atom    7 type  1   force =     0.00012999   -0.00016979    0.00059506
     atom    8 type  1   force =     0.00003795    0.00000554   -0.00123095
     atom    9 type  1   force =    -0.00009287    0.00015315   -0.00156414
     atom   10 type  1   force =     0.00006042    0.00027127    0.00004784
     atom   11 type  1   force =     0.00002500   -0.00010025    0.00314173
     atom   12 type  1   force =    -0.00001728    0.00002052   -0.00004178
     atom   13 type  1   force =    -0.00012912   -0.00013391    0.00094577
     atom   14 type  1   force =     0.00001855    0.00000496    0.00062888
     atom   15 type  1   force =    -0.00006424   -0.00011406    0.00084792
     atom   16 type  1   force =    -0.00001590   -0.00002058   -0.00000031
     atom   17 type  1   force =    -0.00002641   -0.00003239    0.00000965
     atom   18 type  1   force =     0.00000417    0.00004745   -0.00021879
     atom   19 type  1   force =     0.00002415   -0.00006444    0.00322399
     atom   20 type  1   force =    -0.00000849    0.00010396    0.00006735
     atom   21 type  1   force =    -0.00005933   -0.00006719   -0.00023189
     atom   22 type  1   force =     0.00002709   -0.00008878    0.00315981
     atom   23 type  1   force =    -0.00000673    0.00004774   -0.00006150
     atom   24 type  1   force =     0.00005168    0.00016414    0.00009079
     atom   25 type  1   force =    -0.00002618   -0.00002601   -0.00024862
     atom   26 type  1   force =     0.00002838   -0.00004406    0.00303151
     atom   27 type  1   force =     0.00001503   -0.00001207    0.00005138
     atom   28 type  1   force =    -0.00001366    0.00014452    0.00013825
     atom   29 type  2   force =     0.01130985   -0.00676922    0.00260250
     atom   30 type  2   force =    -0.01125273    0.00662658    0.00263464
     The Hubbard contrib.    to forces
     atom    1 type  1   force =     0.00000000    0.00000000    0.00000000
     atom    2 type  1   force =     0.00000000    0.00000000    0.00000000
     atom    3 type  1   force =     0.00000000    0.00000000    0.00000000
     atom    4 type  1   force =     0.00000000    0.00000000    0.00000000
     atom    5 type  1   force =     0.00000000    0.00000000    0.00000000
     atom    6 type  1   force =     0.00000000    0.00000000    0.00000000
     atom    7 type  1   force =     0.00000000    0.00000000    0.00000000
     atom    8 type  1   force =     0.00000000    0.00000000    0.00000000
     atom    9 type  1   force =     0.00000000    0.00000000    0.00000000
     atom   10 type  1   force =     0.00000000    0.00000000    0.00000000
     atom   11 type  1   force =     0.00000000    0.00000000    0.00000000
     atom   12 type  1   force =     0.00000000    0.00000000    0.00000000
     atom   13 type  1   force =     0.00000000    0.00000000    0.00000000
     atom   14 type  1   force =     0.00000000    0.00000000    0.00000000
     atom   15 type  1   force =     0.00000000    0.00000000    0.00000000
     atom   16 type  1   force =     0.00000000    0.00000000    0.00000000
     atom   17 type  1   force =     0.00000000    0.00000000    0.00000000
     atom   18 type  1   force =     0.00000000    0.00000000    0.00000000
     atom   19 type  1   force =     0.00000000    0.00000000    0.00000000
     atom   20 type  1   force =     0.00000000    0.00000000    0.00000000
     atom   21 type  1   force =     0.00000000    0.00000000    0.00000000
     atom   22 type  1   force =     0.00000000    0.00000000    0.00000000
     atom   23 type  1   force =     0.00000000    0.00000000    0.00000000
     atom   24 type  1   force =     0.00000000    0.00000000    0.00000000
     atom   25 type  1   force =     0.00000000    0.00000000    0.00000000
     atom   26 type  1   force =     0.00000000    0.00000000    0.00000000
     atom   27 type  1   force =     0.00000000    0.00000000    0.00000000
     atom   28 type  1   force =     0.00000000    0.00000000    0.00000000
     atom   29 type  2   force =     0.00000000    0.00000000    0.00000000
     atom   30 type  2   force =     0.00000000    0.00000000    0.00000000
     The SCF correction term to forces
     atom    1 type  1   force =     0.00000002    0.00000038   -0.00000000
     atom    2 type  1   force =     0.00000001    0.00000022   -0.00000000
     atom    3 type  1   force =    -0.00000014   -0.00000028   -0.00000000
     atom    4 type  1   force =     0.00000016   -0.00000025   -0.00000000
     atom    5 type  1   force =    -0.00000000   -0.00000005   -0.00000136
     atom    6 type  1   force =     0.00000009    0.00000005   -0.00000142
     atom    7 type  1   force =     0.00000001   -0.00000006    0.00000310
     atom    8 type  1   force =    -0.00000009    0.00000006   -0.00000141
     atom    9 type  1   force =     0.00000000   -0.00000006   -0.00000134
     atom   10 type  1   force =    -0.00000000   -0.00000000    0.00000000
     atom   11 type  1   force =     0.00000000    0.00000000    0.00000000
     atom   12 type  1   force =     0.00000000   -0.00000000    0.00000000
     atom   13 type  1   force =    -0.00000001   -0.00000006    0.00000313
     atom   14 type  1   force =     0.00000004    0.00000005    0.00000319
     atom   15 type  1   force =    -0.00000004    0.00000006    0.00000302
     atom   16 type  1   force =    -0.00000000    0.00000000    0.00000000
     atom   17 type  1   force =     0.00000000    0.00000000   -0.00000000
     atom   18 type  1   force =     0.00000000   -0.00000000   -0.00000000
     atom   19 type  1   force =    -0.00000000   -0.00000000    0.00000000
     atom   20 type  1   force =    -0.00000000    0.00000000   -0.00000000
     atom   21 type  1   force =    -0.00000000   -0.00000000   -0.00000000
     atom   22 type  1   force =     0.00000000   -0.00000000    0.00000000
     atom   23 type  1   force =    -0.00000000   -0.00000000    0.00000000
     atom   24 type  1   force =     0.00000000    0.00000000   -0.00000000
     atom   25 type  1   force =    -0.00000000    0.00000000   -0.00000000
     atom   26 type  1   force =    -0.00000000   -0.00000000    0.00000000
     atom   27 type  1   force =     0.00000000    0.00000000    0.00000000
     atom   28 type  1   force =     0.00000000   -0.00000000   -0.00000000
     atom   29 type  2   force =     0.00000395    0.00000056   -0.00000000
     atom   30 type  2   force =     0.00000209   -0.00000499    0.00000000

     Total force =     0.001602     Total SCF correction =     0.000010
     Energy error            =      8.4E-06 Ry
     Gradient error          =      9.4E-04 Ry/Bohr

     bfgs converged in  13 scf cycles and  11 bfgs steps
     (criteria: energy <  1.0E-04 Ry, force <  1.0E-03 Ry/Bohr)

     End of BFGS Geometry Optimization

     Final energy             =   -1188.6582688825 Ry

     File ./alo3.bfgs deleted, as requested
Begin final coordinates

ATOMIC_POSITIONS (angstrom)
Al               0.0021845333        4.1226771348       25.4913400000    1   1   0
Al               2.8501176166        4.1334389041       25.4913400000    1   1   0
Al               1.4295941438        1.6541914742       25.4913400000    1   1   0
Al               4.2764893107        1.6569659674       25.4913400000    1   1   0
Al               7.1380264047        0.0035077984       23.1219038037
Al               2.8550762844        2.4754034519       23.1227948418
Al               5.7192894974        0.8246984247       20.8294712575
Al               5.7096964547        2.4775961727       23.1143334502
Al               4.2815702079        0.0048974909       23.1100789176
Al               7.1398900000        0.0000000000       16.1638300000    0   0   0
Al               4.2839300000        1.6488800000       11.5000800000    0   0   0
Al               5.7119100000        0.8244400000       13.8319600000    0   0   0
Al               2.8563663424        0.8231581769       20.8310825421
Al               4.2868050936        3.3005198032       20.8280217749
Al               1.4313645494        3.2971483852       20.8390437235
Al               1.4279800000        3.2977700000       13.8319600000    0   0   0
Al               4.2839300000        1.6488800000       18.4957100000    0   0   0
Al               0.0000000000        4.1222100000       18.4957100000    0   0   0
Al               0.0000000000        4.1222100000       11.5000800000    0   0   0
Al               2.8559600000        2.4733300000       16.1638300000    0   0   0
Al               2.8559600000        4.1222100000       18.4957100000    0   0   0
Al               2.8559600000        4.1222100000       11.5000800000    0   0   0
Al               2.8559600000        0.8244400000       13.8319600000    0   0   0
Al               5.7119100000        2.4733300000       16.1638300000    0   0   0
Al               1.4279800000        1.6488800000       18.4957100000    0   0   0
Al               1.4279800000        1.6488800000       11.5000800000    0   0   0
Al               4.2839300000        3.2977700000       13.8319600000    0   0   0
Al               4.2839300000        0.0000000000       16.1638300000    0   0   0
O                4.8430489607        1.2986458759       27.8913400000    1   1   0
O                3.7371966941        1.9856563856       27.8913400000    1   1   0
End final coordinates



     Writing all to output data dir ./alo3.save/ :
     XML data file, charge density, pseudopotentials, collected wavefunctions

     init_run     :     11.54s CPU     11.71s WALL (       1 calls)
     electrons    :   4174.61s CPU   4203.27s WALL (      13 calls)
     update_pot   :      5.66s CPU      5.95s WALL (      12 calls)
     forces       :     90.82s CPU     91.96s WALL (      13 calls)

     Called by init_run:
     wfcinit      :     10.37s CPU     10.47s WALL (       1 calls)
     wfcinit:atom :      0.01s CPU      0.01s WALL (       2 calls)
     wfcinit:wfcr :     10.27s CPU     10.34s WALL (       2 calls)
     potinit      :      0.44s CPU      0.48s WALL (       1 calls)
     hinit0       :      0.53s CPU      0.55s WALL (       1 calls)

     Called by electrons:
     c_bands      :   3550.00s CPU   3573.43s WALL (     262 calls)
     sum_band     :    460.12s CPU    463.27s WALL (     262 calls)
     v_of_rho     :     40.81s CPU     41.45s WALL (     269 calls)
     v_h          :      0.83s CPU      0.85s WALL (     269 calls)
     v_xc         :     42.00s CPU     42.76s WALL (     282 calls)
     newd         :     39.64s CPU     39.90s WALL (     269 calls)
     PAW_pot      :     88.23s CPU     88.86s WALL (     281 calls)
     mix_rho      :      4.23s CPU      4.41s WALL (     262 calls)

     Called by c_bands:
     init_us_2    :     31.63s CPU     32.02s WALL (    1100 calls)
     cegterg      :   3448.21s CPU   3470.59s WALL (     525 calls)

     Called by sum_band:
     sum_band:wei :      0.45s CPU      0.45s WALL (     262 calls)
     sum_band:loo :    435.23s CPU    438.10s WALL (     262 calls)
     sum_band:buf :      1.14s CPU      1.17s WALL (     524 calls)
     sum_band:ini :     13.68s CPU     13.83s WALL (     524 calls)
     sum_band:cal :    392.49s CPU    394.78s WALL (     548 calls)
     sum_band:bec :      0.46s CPU      0.47s WALL (     548 calls)
     addusdens    :     16.78s CPU     16.93s WALL (     262 calls)
                                        0.00s GPU  (     262 calls)
     addusd:skk   :      0.11s CPU      0.11s WALL (     524 calls)
                                        0.00s GPU  (     524 calls)

     Called by *egterg:
     cdiaghg      :     15.93s CPU     16.05s WALL (    2925 calls)
     cegterg:over :    470.41s CPU    472.61s WALL (    2436 calls)
     cegterg:upda :     41.40s CPU     41.70s WALL (    2436 calls)
     cegterg:last :     97.61s CPU     98.22s WALL (    1225 calls)
     cdiaghg:chol :      0.55s CPU      0.56s WALL (    2925 calls)
     cdiaghg:inve :      0.07s CPU      0.07s WALL (    2925 calls)
     cdiaghg:para :      3.11s CPU      3.15s WALL (    5850 calls)
     h_psi        :   1783.70s CPU   1796.13s WALL (    2963 calls)
     s_psi        :    548.37s CPU    552.46s WALL (    2963 calls)
     g_psi        :      1.33s CPU      1.34s WALL (    2436 calls)

     Called by h_psi:
     h_psi:calbec :   1060.27s CPU   1066.34s WALL (    2963 calls)
     vloc_psi     :    135.43s CPU    137.22s WALL (    2963 calls)
     add_vuspsi   :    586.49s CPU    590.98s WALL (    2963 calls)

     General routines
     calbec       :   1532.22s CPU   1541.06s WALL (    3615 calls)
     fft          :     22.85s CPU     23.15s WALL (    5894 calls)
     ffts         :      1.34s CPU      1.36s WALL (     524 calls)
     fftw         :    158.38s CPU    160.37s WALL (  201688 calls)

     Parallel routines

     PAW routines
     PAW_pot      :     88.23s CPU     88.86s WALL (     281 calls)

     PWSCF        :      1h11m CPU      1h12m WALL


   This run was terminated on:   8:46:17   4Dec2025            

=------------------------------------------------------------------------------=
   JOB DONE.
=------------------------------------------------------------------------------=
